 Entering Gaussian System, Link 0=g16
 Input=h2o.gjf
 Output=h2o.log
 Initial command:
 /home/madison/g16a03/g16/l1.exe "/tmp/Gau-6337.inp" -scrdir="/tmp/"
 Entering Link 1 = /home/madison/g16a03/g16/l1.exe PID=      6339.
  
 Copyright (c) 1988,1990,1992,1993,1995,1998,2003,2009,2016,
            Gaussian, Inc.  All Rights Reserved.
  
 This is part of the Gaussian(R) 16 program.  It is based on
 the Gaussian(R) 09 system (copyright 2009, Gaussian, Inc.),
 the Gaussian(R) 03 system (copyright 2003, Gaussian, Inc.),
 the Gaussian(R) 98 system (copyright 1998, Gaussian, Inc.),
 the Gaussian(R) 94 system (copyright 1995, Gaussian, Inc.),
 the Gaussian 92(TM) system (copyright 1992, Gaussian, Inc.),
 the Gaussian 90(TM) system (copyright 1990, Gaussian, Inc.),
 the Gaussian 88(TM) system (copyright 1988, Gaussian, Inc.),
 the Gaussian 86(TM) system (copyright 1986, Carnegie Mellon
 University), and the Gaussian 82(TM) system (copyright 1983,
 Carnegie Mellon University). Gaussian is a federally registered
 trademark of Gaussian, Inc.
  
 This software contains proprietary and confidential information,
 including trade secrets, belonging to Gaussian, Inc.
  
 This software is provided under written license and may be
 used, copied, transmitted, or stored only in accord with that
 written license.
  
 The following legend is applicable only to US Government
 contracts under FAR:
  
                    RESTRICTED RIGHTS LEGEND
  
 Use, reproduction and disclosure by the US Government is
 subject to restrictions as set forth in subparagraphs (a)
 and (c) of the Commercial Computer Software - Restricted
 Rights clause in FAR 52.227-19.
  
 Gaussian, Inc.
 340 Quinnipiac St., Bldg. 40, Wallingford CT 06492
  
  
 ---------------------------------------------------------------
 Warning -- This program may not be used in any manner that
 competes with the business of Gaussian, Inc. or will provide
 assistance to any competitor of Gaussian, Inc.  The licensee
 of this program is prohibited from giving any competitor of
 Gaussian, Inc. access to this program.  By using this program,
 the user acknowledges that Gaussian, Inc. is engaged in the
 business of creating and licensing software in the field of
 computational chemistry and represents and warrants to the
 licensee that it is not a competitor of Gaussian, Inc. and that
 it will not use this program in any manner prohibited above.
 ---------------------------------------------------------------
  

 Cite this work as:
 Gaussian 16, Revision A.03,
 M. J. Frisch, G. W. Trucks, H. B. Schlegel, G. E. Scuseria, 
 M. A. Robb, J. R. Cheeseman, G. Scalmani, V. Barone, 
 G. A. Petersson, H. Nakatsuji, X. Li, M. Caricato, A. V. Marenich, 
 J. Bloino, B. G. Janesko, R. Gomperts, B. Mennucci, H. P. Hratchian, 
 J. V. Ortiz, A. F. Izmaylov, J. L. Sonnenberg, D. Williams-Young, 
 F. Ding, F. Lipparini, F. Egidi, J. Goings, B. Peng, A. Petrone, 
 T. Henderson, D. Ranasinghe, V. G. Zakrzewski, J. Gao, N. Rega, 
 G. Zheng, W. Liang, M. Hada, M. Ehara, K. Toyota, R. Fukuda, 
 J. Hasegawa, M. Ishida, T. Nakajima, Y. Honda, O. Kitao, H. Nakai, 
 T. Vreven, K. Throssell, J. A. Montgomery, Jr., J. E. Peralta, 
 F. Ogliaro, M. J. Bearpark, J. J. Heyd, E. N. Brothers, K. N. Kudin, 
 V. N. Staroverov, T. A. Keith, R. Kobayashi, J. Normand, 
 K. Raghavachari, A. P. Rendell, J. C. Burant, S. S. Iyengar, 
 J. Tomasi, M. Cossi, J. M. Millam, M. Klene, C. Adamo, R. Cammi, 
 J. W. Ochterski, R. L. Martin, K. Morokuma, O. Farkas, 
 J. B. Foresman, and D. J. Fox, Gaussian, Inc., Wallingford CT, 2016.
 
 ******************************************
 Gaussian 16:  ES64L-G16RevA.03 25-Dec-2016
                19-Jan-2021 
 ******************************************
 %chk=h20.chk
 ---------------
 #P B3LYP/6-31G*
 ---------------
 1/38=1,172=1/1;
 2/12=2,17=6,18=5,40=1/2;
 3/5=1,6=6,7=1,11=2,25=1,30=1,74=-5/1,2,3;
 4//1;
 5/5=2,38=5/2;
 6/7=2,8=2,9=2,10=2,28=1/1;
 99/5=1,9=1/99;
 Leave Link    1 at Tue Jan 19 09:34:02 2021, MaxMem=           0 cpu:               0.0 elap:               0.0
 (Enter /home/madison/g16a03/g16/l101.exe)
 ----------
 test-water
 ----------
 Symbolic Z-matrix:
 Charge =  0 Multiplicity = 1
 O                     0.874     0.       -1.247 
 H                     0.288     0.       -2.004 
 H                     0.288     0.       -0.49 
 
 ITRead=  0  0  0
 MicOpt= -1 -1 -1
 NAtoms=      3 NQM=        3 NQMF=       0 NMMI=      0 NMMIF=      0
                NMic=       0 NMicF=      0.
                    Isotopes and Nuclear Properties:
 (Nuclear quadrupole moments (NQMom) in fm**2, nuclear magnetic moments (NMagM)
  in nuclear magnetons)

  Atom         1           2           3
 IAtWgt=          16           1           1
 AtmWgt=  15.9949146   1.0078250   1.0078250
 NucSpn=           0           1           1
 AtZEff=  -0.0000000  -0.0000000  -0.0000000
 NQMom=    0.0000000   0.0000000   0.0000000
 NMagM=    0.0000000   2.7928460   2.7928460
 AtZNuc=   8.0000000   1.0000000   1.0000000
 Leave Link  101 at Tue Jan 19 09:34:02 2021, MaxMem=   104857600 cpu:               0.1 elap:               0.1
 (Enter /home/madison/g16a03/g16/l202.exe)
                          Input orientation:                          
 ---------------------------------------------------------------------
 Center     Atomic      Atomic             Coordinates (Angstroms)
 Number     Number       Type             X           Y           Z
 ---------------------------------------------------------------------
      1          8           0        0.874000    0.000000   -1.247000
      2          1           0        0.288000    0.000000   -2.004000
      3          1           0        0.288000    0.000000   -0.490000
 ---------------------------------------------------------------------
                    Distance matrix (angstroms):
                    1          2          3
     1  O    0.000000
     2  H    0.957311   0.000000
     3  H    0.957311   1.514000   0.000000
 Stoichiometry    H2O
 Framework group  C2V[C2(O),SGV(H2)]
 Deg. of freedom     2
 Full point group                 C2V     NOp   4
 Largest Abelian subgroup         C2V     NOp   4
 Largest concise Abelian subgroup C2      NOp   2
                         Standard orientation:                         
 ---------------------------------------------------------------------
 Center     Atomic      Atomic             Coordinates (Angstroms)
 Number     Number       Type             X           Y           Z
 ---------------------------------------------------------------------
      1          8           0       -0.000000    0.000000    0.117200
      2          1           0        0.000000    0.757000   -0.468800
      3          1           0       -0.000000   -0.757000   -0.468800
 ---------------------------------------------------------------------
 Rotational constants (GHZ):         822.1522170         437.5324837         285.5621738
 Leave Link  202 at Tue Jan 19 09:34:02 2021, MaxMem=   104857600 cpu:               0.0 elap:               0.0
 (Enter /home/madison/g16a03/g16/l301.exe)
 Standard basis: 6-31G(d) (6D, 7F)
 Ernie: Thresh=  0.10000D-02 Tol=  0.10000D-05 Strict=F.
 There are    10 symmetry adapted cartesian basis functions of A1  symmetry.
 There are     1 symmetry adapted cartesian basis functions of A2  symmetry.
 There are     3 symmetry adapted cartesian basis functions of B1  symmetry.
 There are     5 symmetry adapted cartesian basis functions of B2  symmetry.
 There are    10 symmetry adapted basis functions of A1  symmetry.
 There are     1 symmetry adapted basis functions of A2  symmetry.
 There are     3 symmetry adapted basis functions of B1  symmetry.
 There are     5 symmetry adapted basis functions of B2  symmetry.
    19 basis functions,    36 primitive gaussians,    19 cartesian basis functions
     5 alpha electrons        5 beta electrons
       nuclear repulsion energy         9.1939131606 Hartrees.
 IExCor=  402 DFT=T Ex+Corr=B3LYP ExCW=0 ScaHFX=  0.200000
 ScaDFX=  0.800000  0.720000  1.000000  0.810000 ScalE2=  1.000000  1.000000
 IRadAn=      5 IRanWt=     -1 IRanGd=            0 ICorTp=0 IEmpDi=  4
 NAtoms=    3 NActive=    3 NUniq=    2 SFac= 2.25D+00 NAtFMM=   60 NAOKFM=F Big=F
 Integral buffers will be    131072 words long.
 Raffenetti 2 integral format.
 Two-electron integral symmetry is turned on.
 Leave Link  301 at Tue Jan 19 09:34:03 2021, MaxMem=   104857600 cpu:               0.1 elap:               0.1
 (Enter /home/madison/g16a03/g16/l302.exe)
 NPDir=0 NMtPBC=     1 NCelOv=     1 NCel=       1 NClECP=     1 NCelD=      1
         NCelK=      1 NCelE2=     1 NClLst=     1 CellRange=     0.0.
 One-electron integrals computed using PRISM.
 One-electron integral symmetry used in STVInt
 NBasis=    19 RedAO= T EigKep=  2.23D-02  NBF=    10     1     3     5
 NBsUse=    19 1.00D-06 EigRej= -1.00D+00 NBFU=    10     1     3     5
 Precomputing XC quadrature grid using
 IXCGrd= 4 IRadAn=           5 IRanWt=          -1 IRanGd=           0 AccXCQ= 0.00D+00.
 Generated NRdTot=       0 NPtTot=           0 NUsed=           0 NTot=          32
 NSgBfM=    19    19    19    19    19 MxSgAt=     3 MxSgA2=     3.
 Leave Link  302 at Tue Jan 19 09:34:03 2021, MaxMem=   104857600 cpu:               0.1 elap:               0.2
 (Enter /home/madison/g16a03/g16/l303.exe)
 DipDrv:  MaxL=1.
 Leave Link  303 at Tue Jan 19 09:34:04 2021, MaxMem=   104857600 cpu:               0.1 elap:               0.2
 (Enter /home/madison/g16a03/g16/l401.exe)
 ExpMin= 1.61D-01 ExpMax= 5.48D+03 ExpMxC= 8.25D+02 IAcc=3 IRadAn=         5 AccDes= 0.00D+00
 Harris functional with IExCor=  402 and IRadAn=       5 diagonalized for initial guess.
 HarFok:  IExCor=  402 AccDes= 0.00D+00 IRadAn=         5 IDoV= 1 UseB2=F ITyADJ=14
 ICtDFT=  3500011 ScaDFX=  1.000000  1.000000  1.000000  1.000000
 FoFCou: FMM=F IPFlag=           0 FMFlag=      100000 FMFlg1=           0
         NFxFlg=           0 DoJE=T BraDBF=F KetDBF=T FulRan=T
         wScrn=  0.000000 ICntrl=       500 IOpCl=  0 I1Cent=   200000004 NGrid=           0
         NMat0=    1 NMatS0=      1 NMatT0=    0 NMatD0=    1 NMtDS0=    0 NMtDT0=    0
 Petite list used in FoFCou.
 Harris En= -76.4479022362249    
 JPrj=0 DoOrth=F DoCkMO=F.
 Initial guess orbital symmetries:
       Occupied  (A1) (A1) (B2) (A1) (B1)
       Virtual   (A1) (B2) (B2) (A1) (B1) (A1) (B2) (A1) (A1) (A2)
                 (B1) (A1) (B2) (A1)
 The electronic state of the initial guess is 1-A1.
 Leave Link  401 at Tue Jan 19 09:34:04 2021, MaxMem=   104857600 cpu:               0.2 elap:               0.3
 (Enter /home/madison/g16a03/g16/l502.exe)
 Keep R1 ints in memory in symmetry-blocked form, NReq=881193.
 FoFCou: FMM=F IPFlag=           0 FMFlag=           0 FMFlg1=           0
         NFxFlg=           0 DoJE=F BraDBF=F KetDBF=F FulRan=T
         wScrn=  0.000000 ICntrl=       600 IOpCl=  0 I1Cent=           0 NGrid=           0
         NMat0=    1 NMatS0=    190 NMatT0=    0 NMatD0=    1 NMtDS0=    0 NMtDT0=    0
 Petite list used in FoFCou.
 Closed shell SCF:
 Using DIIS extrapolation, IDIIS=  1040.
 NGot=   104857600 LenX=   104849670 LenY=   104848788
 Requested convergence on RMS density matrix=1.00D-08 within 128 cycles.
 Requested convergence on MAX density matrix=1.00D-06.
 Requested convergence on             energy=1.00D-06.
 No special actions if energy rises.
 Integral accuracy reduced to 1.0D-05 until final iterations.

 Cycle   1  Pass 0  IDiag  1:
 E= -76.3295694900655    
 DIIS: error= 7.78D-02 at cycle   1 NSaved=   1.
 NSaved= 1 IEnMin= 1 EnMin= -76.3295694900655     IErMin= 1 ErrMin= 7.78D-02
 ErrMax= 7.78D-02  0.00D+00 EMaxC= 1.00D-01 BMatC= 1.07D-01 BMatP= 1.07D-01
 IDIUse=3 WtCom= 2.22D-01 WtEn= 7.78D-01
 Coeff-Com:  0.100D+01
 Coeff-En:   0.100D+01
 Coeff:      0.100D+01
 Gap=     0.212 Goal=   None    Shift=    0.000
 GapD=    0.212 DampG=1.000 DampE=0.500 DampFc=0.5000 IDamp=-1.
 Damping current iteration by 5.00D-01
 RMSDP=2.99D-02 MaxDP=2.30D-01              OVMax= 2.01D-01

 Cycle   2  Pass 0  IDiag  1:
 E= -76.3570493459018     Delta-E=       -0.027479855836 Rises=F Damp=T
 DIIS: error= 1.89D-02 at cycle   2 NSaved=   2.
 NSaved= 2 IEnMin= 2 EnMin= -76.3570493459018     IErMin= 2 ErrMin= 1.89D-02
 ErrMax= 1.89D-02  0.00D+00 EMaxC= 1.00D-01 BMatC= 6.25D-03 BMatP= 1.07D-01
 IDIUse=3 WtCom= 8.11D-01 WtEn= 1.89D-01
 Coeff-Com:  0.180D+00 0.820D+00
 Coeff-En:   0.294D+00 0.706D+00
 Coeff:      0.202D+00 0.798D+00
 Gap=     0.344 Goal=   None    Shift=    0.000
 RMSDP=3.59D-03 MaxDP=3.85D-02 DE=-2.75D-02 OVMax= 1.11D-01

 Cycle   3  Pass 0  IDiag  1:
 E= -76.4085750465069     Delta-E=       -0.051525700605 Rises=F Damp=F
 DIIS: error= 3.21D-03 at cycle   3 NSaved=   3.
 NSaved= 3 IEnMin= 3 EnMin= -76.4085750465069     IErMin= 3 ErrMin= 3.21D-03
 ErrMax= 3.21D-03  0.00D+00 EMaxC= 1.00D-01 BMatC= 1.98D-04 BMatP= 6.25D-03
 IDIUse=3 WtCom= 9.68D-01 WtEn= 3.21D-02
 Coeff-Com:  0.374D-01-0.121D-01 0.975D+00
 Coeff-En:   0.000D+00 0.000D+00 0.100D+01
 Coeff:      0.362D-01-0.117D-01 0.976D+00
 Gap=     0.358 Goal=   None    Shift=    0.000
 RMSDP=4.76D-04 MaxDP=4.05D-03 DE=-5.15D-02 OVMax= 3.25D-03

 Cycle   4  Pass 0  IDiag  1:
 E= -76.4087088101477     Delta-E=       -0.000133763641 Rises=F Damp=F
 DIIS: error= 3.53D-04 at cycle   4 NSaved=   4.
 NSaved= 4 IEnMin= 4 EnMin= -76.4087088101477     IErMin= 4 ErrMin= 3.53D-04
 ErrMax= 3.53D-04  0.00D+00 EMaxC= 1.00D-01 BMatC= 2.05D-06 BMatP= 1.98D-04
 IDIUse=3 WtCom= 9.96D-01 WtEn= 3.53D-03
 Coeff-Com:  0.612D-02-0.175D-01 0.217D+00 0.794D+00
 Coeff-En:   0.000D+00 0.000D+00 0.000D+00 0.100D+01
 Coeff:      0.610D-02-0.174D-01 0.216D+00 0.795D+00
 Gap=     0.358 Goal=   None    Shift=    0.000
 RMSDP=3.84D-05 MaxDP=1.73D-04 DE=-1.34D-04 OVMax= 2.82D-04

 Cycle   5  Pass 0  IDiag  1:
 E= -76.4087102791250     Delta-E=       -0.000001468977 Rises=F Damp=F
 DIIS: error= 5.31D-05 at cycle   5 NSaved=   5.
 NSaved= 5 IEnMin= 5 EnMin= -76.4087102791250     IErMin= 5 ErrMin= 5.31D-05
 ErrMax= 5.31D-05  0.00D+00 EMaxC= 1.00D-01 BMatC= 3.99D-08 BMatP= 2.05D-06
 IDIUse=1 WtCom= 1.00D+00 WtEn= 0.00D+00
 Coeff-Com:  0.513D-03-0.322D-03-0.539D-03-0.552D-02 0.101D+01
 Coeff:      0.513D-03-0.322D-03-0.539D-03-0.552D-02 0.101D+01
 Gap=     0.358 Goal=   None    Shift=    0.000
 RMSDP=7.91D-06 MaxDP=7.14D-05 DE=-1.47D-06 OVMax= 4.33D-05

 Initial convergence to 1.0D-05 achieved.  Increase integral accuracy.
 Cycle   6  Pass 1  IDiag  1:
 E= -76.4087114095710     Delta-E=       -0.000001130446 Rises=F Damp=F
 DIIS: error= 5.64D-07 at cycle   1 NSaved=   1.
 NSaved= 1 IEnMin= 1 EnMin= -76.4087114095710     IErMin= 1 ErrMin= 5.64D-07
 ErrMax= 5.64D-07  0.00D+00 EMaxC= 1.00D-01 BMatC= 4.63D-12 BMatP= 4.63D-12
 IDIUse=1 WtCom= 1.00D+00 WtEn= 0.00D+00
 Coeff-Com:  0.100D+01
 Coeff:      0.100D+01
 Gap=     0.358 Goal=   None    Shift=    0.000
 RMSDP=7.91D-06 MaxDP=7.14D-05 DE=-1.13D-06 OVMax= 1.11D-06

 Cycle   7  Pass 1  IDiag  1:
 E= -76.4087114095752     Delta-E=       -0.000000000004 Rises=F Damp=F
 DIIS: error= 3.43D-07 at cycle   2 NSaved=   2.
 NSaved= 2 IEnMin= 2 EnMin= -76.4087114095752     IErMin= 2 ErrMin= 3.43D-07
 ErrMax= 3.43D-07  0.00D+00 EMaxC= 1.00D-01 BMatC= 1.92D-12 BMatP= 4.63D-12
 IDIUse=1 WtCom= 1.00D+00 WtEn= 0.00D+00
 Coeff-Com:  0.363D+00 0.637D+00
 Coeff:      0.363D+00 0.637D+00
 Gap=     0.358 Goal=   None    Shift=    0.000
 RMSDP=7.43D-08 MaxDP=5.15D-07 DE=-4.18D-12 OVMax= 5.31D-07

 Cycle   8  Pass 1  IDiag  1:
 E= -76.4087114095761     Delta-E=       -0.000000000001 Rises=F Damp=F
 DIIS: error= 1.94D-07 at cycle   3 NSaved=   3.
 NSaved= 3 IEnMin= 3 EnMin= -76.4087114095761     IErMin= 3 ErrMin= 1.94D-07
 ErrMax= 1.94D-07  0.00D+00 EMaxC= 1.00D-01 BMatC= 5.61D-13 BMatP= 1.92D-12
 IDIUse=1 WtCom= 1.00D+00 WtEn= 0.00D+00
 Coeff-Com: -0.407D-01 0.339D+00 0.702D+00
 Coeff:     -0.407D-01 0.339D+00 0.702D+00
 Gap=     0.358 Goal=   None    Shift=    0.000
 RMSDP=2.41D-08 MaxDP=1.88D-07 DE=-9.38D-13 OVMax= 1.60D-07

 Cycle   9  Pass 1  IDiag  1:
 E= -76.4087114095765     Delta-E=       -0.000000000000 Rises=F Damp=F
 DIIS: error= 4.91D-09 at cycle   4 NSaved=   4.
 NSaved= 4 IEnMin= 4 EnMin= -76.4087114095765     IErMin= 4 ErrMin= 4.91D-09
 ErrMax= 4.91D-09  0.00D+00 EMaxC= 1.00D-01 BMatC= 4.99D-16 BMatP= 5.61D-13
 IDIUse=1 WtCom= 1.00D+00 WtEn= 0.00D+00
 Coeff-Com: -0.809D-02 0.455D-01 0.112D+00 0.851D+00
 Coeff:     -0.809D-02 0.455D-01 0.112D+00 0.851D+00
 Gap=     0.358 Goal=   None    Shift=    0.000
 RMSDP=7.49D-10 MaxDP=4.15D-09 DE=-4.12D-13 OVMax= 5.95D-09

 SCF Done:  E(RB3LYP) =  -76.4087114096     A.U. after    9 cycles
            NFock=  9  Conv=0.75D-09     -V/T= 2.0073
 KE= 7.585771836485D+01 PE=-1.989856412947D+02 EE= 3.752529835969D+01
 Leave Link  502 at Tue Jan 19 09:34:05 2021, MaxMem=   104857600 cpu:               0.4 elap:               0.5
 (Enter /home/madison/g16a03/g16/l601.exe)
 Copying SCF densities to generalized density rwf, IOpCl= 0 IROHF=0.

 **********************************************************************

            Population analysis using the SCF density.

 **********************************************************************

 Orbital symmetries:
       Occupied  (A1) (A1) (B2) (A1) (B1)
       Virtual   (A1) (B2) (B2) (A1) (B1) (A1) (B2) (A1) (A1) (A2)
                 (B1) (A1) (B2) (A1)
 The electronic state is 1-A1.
 Alpha  occ. eigenvalues --  -19.13574  -1.00209  -0.52293  -0.37122  -0.29173
 Alpha virt. eigenvalues --    0.06586   0.15239   0.78089   0.86966   0.89092
 Alpha virt. eigenvalues --    0.89581   1.06934   1.19220   1.72910   1.74316
 Alpha virt. eigenvalues --    1.77907   2.29456   2.59816   3.55930
          Condensed to atoms (all electrons):
               1          2          3
     1  O    8.285662   0.246307   0.246307
     2  H    0.246307   0.388289  -0.023735
     3  H    0.246307  -0.023735   0.388289
 Mulliken charges:
               1
     1  O   -0.778276
     2  H    0.389138
     3  H    0.389138
 Sum of Mulliken charges =   0.00000
 Mulliken charges with hydrogens summed into heavy atoms:
               1
     1  O    0.000000
 Electronic spatial extent (au):  <R**2>=             19.0297
 Charge=              0.0000 electrons
 Dipole moment (field-independent basis, Debye):
    X=             -0.0000    Y=             -0.0000    Z=             -2.0784  Tot=              2.0784
 Quadrupole moment (field-independent basis, Debye-Ang):
   XX=             -7.1811   YY=             -4.2639   ZZ=             -6.0067
   XY=              0.0000   XZ=              0.0000   YZ=              0.0000
 Traceless Quadrupole moment (field-independent basis, Debye-Ang):
   XX=             -1.3639   YY=              1.5533   ZZ=             -0.1895
   XY=              0.0000   XZ=              0.0000   YZ=              0.0000
 Octapole moment (field-independent basis, Debye-Ang**2):
  XXX=              0.0000  YYY=             -0.0000  ZZZ=             -1.2174  XYY=             -0.0000
  XXY=              0.0000  XXZ=             -0.3299  XZZ=             -0.0000  YZZ=              0.0000
  YYZ=             -1.1921  XYZ=             -0.0000
 Hexadecapole moment (field-independent basis, Debye-Ang**3):
 XXXX=             -5.1879 YYYY=             -5.9344 ZZZZ=             -6.2013 XXXY=             -0.0000
 XXXZ=             -0.0000 YYYX=             -0.0000 YYYZ=              0.0000 ZZZX=             -0.0000
 ZZZY=              0.0000 XXYY=             -2.0878 XXZZ=             -1.9442 YYZZ=             -1.7267
 XXYZ=              0.0000 YYXZ=              0.0000 ZZXY=              0.0000
 N-N= 9.193913160623D+00 E-N=-1.989856412132D+02  KE= 7.585771836485D+01
 Symmetry A1   KE= 6.767727723311D+01
 Symmetry A2   KE= 5.029833882662D-35
 Symmetry B1   KE= 4.596772178215D+00
 Symmetry B2   KE= 3.583668953529D+00
 No NMR shielding tensors so no spin-rotation constants.
 Leave Link  601 at Tue Jan 19 09:34:05 2021, MaxMem=   104857600 cpu:               0.1 elap:               0.2
 (Enter /home/madison/g16a03/g16/l9999.exe)
 1\1\CRUNTCH3-GREENTEA\SP\RB3LYP\6-31G(d)\H2O1\MADISON\19-Jan-2021\0\\#
 P B3LYP/6-31G*\\test-water\\0,1\O,0,0.874,0.,-1.247\H,0,0.288,0.,-2.00
 4\H,0,0.288,0.,-0.49\\Version=ES64L-G16RevA.03\State=1-A1\HF=-76.40871
 14\RMSD=7.487e-10\Dipole=-0.817694,0.,0.\Quadrupole=-0.1408677,-1.0140
 041,1.1548718,0.,0.,0.\PG=C02V [C2(O1),SGV(H2)]\\@


 TO BEHOLD HARMS OF OUR OWN HANDS DOING,
 WHERE NONE BESIDE US WROUGHT,
 CAUSES SHARP RUING...

                                         SOPHOCLES
 Job cpu time:       0 days  0 hours  0 minutes  1.2 seconds.
 Elapsed time:       0 days  0 hours  0 minutes  1.8 seconds.
 File lengths (MBytes):  RWF=      6 Int=      0 D2E=      0 Chk=      1 Scr=      1
 Normal termination of Gaussian 16 at Tue Jan 19 09:34:05 2021.
