 Entering Gaussian System, Link 0=g16
 Input=LICHM_0.com
 Output=LICHM_0.log
 Initial command:
 /home/madison/g16a03/g16/l1.exe "/tmp/Gau-31938.inp" -scrdir="/tmp/"
 Entering Link 1 = /home/madison/g16a03/g16/l1.exe PID=     31940.
  
 Copyright (c) 1988,1990,1992,1993,1995,1998,2003,2009,2016,
            Gaussian, Inc.  All Rights Reserved.
  
 This is part of the Gaussian(R) 16 program.  It is based on
 the Gaussian(R) 09 system (copyright 2009, Gaussian, Inc.),
 the Gaussian(R) 03 system (copyright 2003, Gaussian, Inc.),
 the Gaussian(R) 98 system (copyright 1998, Gaussian, Inc.),
 the Gaussian(R) 94 system (copyright 1995, Gaussian, Inc.),
 the Gaussian 92(TM) system (copyright 1992, Gaussian, Inc.),
 the Gaussian 90(TM) system (copyright 1990, Gaussian, Inc.),
 the Gaussian 88(TM) system (copyright 1988, Gaussian, Inc.),
 the Gaussian 86(TM) system (copyright 1986, Carnegie Mellon
 University), and the Gaussian 82(TM) system (copyright 1983,
 Carnegie Mellon University). Gaussian is a federally registered
 trademark of Gaussian, Inc.
  
 This software contains proprietary and confidential information,
 including trade secrets, belonging to Gaussian, Inc.
  
 This software is provided under written license and may be
 used, copied, transmitted, or stored only in accord with that
 written license.
  
 The following legend is applicable only to US Government
 contracts under FAR:
  
                    RESTRICTED RIGHTS LEGEND
  
 Use, reproduction and disclosure by the US Government is
 subject to restrictions as set forth in subparagraphs (a)
 and (c) of the Commercial Computer Software - Restricted
 Rights clause in FAR 52.227-19.
  
 Gaussian, Inc.
 340 Quinnipiac St., Bldg. 40, Wallingford CT 06492
  
  
 ---------------------------------------------------------------
 Warning -- This program may not be used in any manner that
 competes with the business of Gaussian, Inc. or will provide
 assistance to any competitor of Gaussian, Inc.  The licensee
 of this program is prohibited from giving any competitor of
 Gaussian, Inc. access to this program.  By using this program,
 the user acknowledges that Gaussian, Inc. is engaged in the
 business of creating and licensing software in the field of
 computational chemistry and represents and warrants to the
 licensee that it is not a competitor of Gaussian, Inc. and that
 it will not use this program in any manner prohibited above.
 ---------------------------------------------------------------
  

 Cite this work as:
 Gaussian 16, Revision A.03,
 M. J. Frisch, G. W. Trucks, H. B. Schlegel, G. E. Scuseria, 
 M. A. Robb, J. R. Cheeseman, G. Scalmani, V. Barone, 
 G. A. Petersson, H. Nakatsuji, X. Li, M. Caricato, A. V. Marenich, 
 J. Bloino, B. G. Janesko, R. Gomperts, B. Mennucci, H. P. Hratchian, 
 J. V. Ortiz, A. F. Izmaylov, J. L. Sonnenberg, D. Williams-Young, 
 F. Ding, F. Lipparini, F. Egidi, J. Goings, B. Peng, A. Petrone, 
 T. Henderson, D. Ranasinghe, V. G. Zakrzewski, J. Gao, N. Rega, 
 G. Zheng, W. Liang, M. Hada, M. Ehara, K. Toyota, R. Fukuda, 
 J. Hasegawa, M. Ishida, T. Nakajima, Y. Honda, O. Kitao, H. Nakai, 
 T. Vreven, K. Throssell, J. A. Montgomery, Jr., J. E. Peralta, 
 F. Ogliaro, M. J. Bearpark, J. J. Heyd, E. N. Brothers, K. N. Kudin, 
 V. N. Staroverov, T. A. Keith, R. Kobayashi, J. Normand, 
 K. Raghavachari, A. P. Rendell, J. C. Burant, S. S. Iyengar, 
 J. Tomasi, M. Cossi, J. M. Millam, M. Klene, C. Adamo, R. Cammi, 
 J. W. Ochterski, R. L. Martin, K. Morokuma, O. Farkas, 
 J. B. Foresman, and D. J. Fox, Gaussian, Inc., Wallingford CT, 2016.
 
 ******************************************
 Gaussian 16:  ES64L-G16RevA.03 25-Dec-2016
                 1-Feb-2021 
 ******************************************
 %chk=LICHM_0.chk
 %Mem=256MB
 %CPU=0-3
 SetSPE:  set environment variable "MP_BIND" = "yes"
 SetSPE:  set environment variable "MP_BLIST" = "0,1,2,3"
 Will use up to    4 processors via shared memory.
 ----------------------------------------------------------------------
 #P b3lyp/6-31G* SP Symmetry=None Charge=angstroms Population=(MK,ReadR
 adii)
 ----------------------------------------------------------------------
 1/18=10,28=-2,38=1,125=111,172=1/1;
 2/12=2,15=3,17=6,18=5,40=1/2;
 3/5=1,6=6,7=1,11=2,25=1,30=1,74=-5/1,2,3;
 4//1;
 5/5=2,38=5/2;
 6/7=2,8=2,9=2,10=2,15=8,20=101,28=1/1,2;
 99/5=1,9=1/99;
 Leave Link    1 at Mon Feb  1 10:40:43 2021, MaxMem=    33554432 cpu:               0.1 elap:               0.0
 (Enter /home/madison/g16a03/g16/l101.exe)
 ----
 QMMM
 ----
 Symbolic Z-matrix:
 Charge =  0 Multiplicity = 1
 O                     5.74761  -0.29297  -7.69933 
 H                     5.16161  -0.29297  -8.45633 
 H                     5.16161  -0.29297  -6.94233 
 
 ITRead=  0  0  0
 MicOpt= -1 -1 -1
 NAtoms=      3 NQM=        3 NQMF=       0 NMMI=      0 NMMIF=      0
                NMic=       0 NMicF=      0.
                    Isotopes and Nuclear Properties:
 (Nuclear quadrupole moments (NQMom) in fm**2, nuclear magnetic moments (NMagM)
  in nuclear magnetons)

  Atom         1           2           3
 IAtWgt=          16           1           1
 AtmWgt=  15.9949146   1.0078250   1.0078250
 NucSpn=           0           1           1
 AtZEff=  -0.0000000  -0.0000000  -0.0000000
 NQMom=    0.0000000   0.0000000   0.0000000
 NMagM=    0.0000000   2.7928460   2.7928460
 AtZNuc=   8.0000000   1.0000000   1.0000000
 Background charge distribution read from input stream:
 Point Charges:
 XYZ=   -0.6491   -0.0000    1.1067 Q=   -2.3164 A=    0.0000 R=    0.0000 C=    0.0000
 XYZ=   -0.7537    0.0000    1.2619 Q=    0.4060 A=    0.0000 R=    0.0000 C=    0.0000
 XYZ=   -0.7790    0.1323    1.1320 Q=    1.9362 A=    0.0000 R=    0.0000 C=    0.0000
 XYZ=   -0.9089    0.0000    1.1573 Q=   -2.3164 A=    0.0000 R=    0.0000 C=    0.0000
 XYZ=   -0.8043   -0.0000    1.0021 Q=   -0.1652 A=    0.0000 R=    0.0000 C=    0.0000
 XYZ=   -0.7790   -0.1323    1.1320 Q=    1.9362 A=    0.0000 R=    0.0000 C=    0.0000
 XYZ=   -0.7969    0.7570    1.7323 Q=   -0.5294 A=    0.0000 R=    0.0000 C=    0.0000
 XYZ=   -0.6513    0.8607    1.7876 Q=    0.9276 A=    0.0000 R=    0.0000 C=    0.0000
 XYZ=   -0.6472    0.6749    1.8088 Q=   -0.2312 A=    0.0000 R=    0.0000 C=    0.0000
 XYZ=   -0.5371    0.7570    1.6817 Q=   -0.5294 A=    0.0000 R=    0.0000 C=    0.0000
 XYZ=   -0.6827    0.6533    1.6264 Q=    0.6966 A=    0.0000 R=    0.0000 C=    0.0000
 XYZ=   -0.6868    0.8391    1.6052 Q=   -0.0742 A=    0.0000 R=    0.0000 C=    0.0000
 XYZ=   -0.7969   -0.7570    1.7323 Q=   -0.5294 A=    0.0000 R=    0.0000 C=    0.0000
 XYZ=   -0.6827   -0.6533    1.6264 Q=    0.6966 A=    0.0000 R=    0.0000 C=    0.0000
 XYZ=   -0.6472   -0.6749    1.8088 Q=   -0.2312 A=    0.0000 R=    0.0000 C=    0.0000
 XYZ=   -0.5371   -0.7570    1.6817 Q=   -0.5294 A=    0.0000 R=    0.0000 C=    0.0000
 XYZ=   -0.6513   -0.8607    1.7876 Q=    0.9276 A=    0.0000 R=    0.0000 C=    0.0000
 XYZ=   -0.6868   -0.8391    1.6052 Q=   -0.0742 A=    0.0000 R=    0.0000 C=    0.0000
 Pt Chg Charge=              0.0000 electrons
 Pt Chg Dipole moment (Debye):
    X=              0.3539    Y=              0.0000    Z=              1.8168  Tot=              1.8510
 Pt Chg Quadrupole moment (Debye-Ang):
   XX=             -1.0623   YY=              2.4398   ZZ=              5.0375
   XY=             -0.0000   XZ=             -0.7242   YZ=              0.0000
 Pt Chg Traceless Quadrupole moment (Debye-Ang):
   XX=             -3.2006   YY=              0.3014   ZZ=              2.8992
   XY=             -0.0000   XZ=             -0.7242   YZ=              0.0000
 Pt Chg Octapole moment (Debye-Ang**2):
  XXX=              1.7852  YYY=              0.0000  ZZZ=             10.7395  XYY=             -1.6151
  XXY=              0.0000  XXZ=             -0.6199  XZZ=             -2.6530  YZZ=              0.0000
  YYZ=              4.2276  XYZ=             -0.0000
 Pt Chg Hexadecapole moment (Debye-Ang**3):
 XXXX=             -2.3857 YYYY=              1.9602 ZZZZ=             20.8590 XXXY=             -0.0000
 XXXZ=              1.8214 YYYX=             -0.0000 YYYZ=              0.0000 ZZZX=             -6.0763
 ZZZY=              0.0000 XXYY=              0.9766 XXZZ=              0.2371 YYZZ=              7.4736
 XXYZ=              0.0000 YYXZ=             -2.7499 ZZXY=             -0.0000
 Leave Link  101 at Mon Feb  1 10:40:43 2021, MaxMem=    33554432 cpu:               0.5 elap:               0.1
 (Enter /home/madison/g16a03/g16/l202.exe)
                          Input orientation:                          
 ---------------------------------------------------------------------
 Center     Atomic      Atomic             Coordinates (Angstroms)
 Number     Number       Type             X           Y           Z
 ---------------------------------------------------------------------
      1          8           0        5.747608   -0.292967   -7.699327
      2          1           0        5.161608   -0.292967   -8.456329
      3          1           0        5.161608   -0.292967   -6.942327
 ---------------------------------------------------------------------
                    Distance matrix (angstroms):
                    1          2          3
     1  O    0.000000
     2  H    0.957313   0.000000
     3  H    0.957311   1.514002   0.000000
 Symmetry turned off by external request.
 Stoichiometry    H2O
 Rotational constants (GHZ):         822.1522170         437.5313277         285.5616814
 Leave Link  202 at Mon Feb  1 10:40:43 2021, MaxMem=    33554432 cpu:               0.0 elap:               0.0
 (Enter /home/madison/g16a03/g16/l301.exe)
 Standard basis: 6-31G(d) (6D, 7F)
 Ernie: Thresh=  0.10000D-02 Tol=  0.10000D-05 Strict=F.
    19 basis functions,    36 primitive gaussians,    19 cartesian basis functions
     5 alpha electrons        5 beta electrons
       nuclear repulsion energy         9.1939053933 Hartrees.
 IExCor=  402 DFT=T Ex+Corr=B3LYP ExCW=0 ScaHFX=  0.200000
 ScaDFX=  0.800000  0.720000  1.000000  0.810000 ScalE2=  1.000000  1.000000
 IRadAn=      5 IRanWt=     -1 IRanGd=            0 ICorTp=0 IEmpDi=  4
 NAtoms=    3 NActive=    3 NUniq=    3 SFac= 1.00D+00 NAtFMM=   60 NAOKFM=F Big=F
 Integral buffers will be    131072 words long.
 Raffenetti 2 integral format.
 Two-electron integral symmetry is turned off.
 Background charge distribution read from rwf.
 PtFMM for NChg=        21 BoxLen=    40.00 Levels= 1 LMax=20 SMax=    19.4 ICnFMM=     1:
 Self energy of the charges =       -40.1760650981 a.u.
 MM   energy of the charges =         0.0000000000 a.u.
 Nuclei-charges interaction =        -0.0125589328 a.u.
 Nuclear repulsion after external point charges =      -30.9947186376 Hartrees.
 Leave Link  301 at Mon Feb  1 10:40:43 2021, MaxMem=    33554432 cpu:               0.1 elap:               0.0
 (Enter /home/madison/g16a03/g16/l302.exe)
 NPDir=0 NMtPBC=     1 NCelOv=     1 NCel=       1 NClECP=     1 NCelD=      1
         NCelK=      1 NCelE2=     1 NClLst=     1 CellRange=     0.0.
 One-electron integrals computed using PRISM.
 NBasis=    19 RedAO= T EigKep=  2.23D-02  NBF=    19
 NBsUse=    19 1.00D-06 EigRej= -1.00D+00 NBFU=    19
 Precomputing XC quadrature grid using
 IXCGrd= 4 IRadAn=           5 IRanWt=          -1 IRanGd=           0 AccXCQ= 0.00D+00.
 Generated NRdTot=       0 NPtTot=           0 NUsed=           0 NTot=          32
 NSgBfM=    19    19    19    19    19 MxSgAt=     3 MxSgA2=     3.
 Leave Link  302 at Mon Feb  1 10:40:43 2021, MaxMem=    33554432 cpu:               0.3 elap:               0.1
 (Enter /home/madison/g16a03/g16/l303.exe)
 DipDrv:  MaxL=1.
 Leave Link  303 at Mon Feb  1 10:40:43 2021, MaxMem=    33554432 cpu:               0.1 elap:               0.0
 (Enter /home/madison/g16a03/g16/l401.exe)
 ExpMin= 1.61D-01 ExpMax= 5.48D+03 ExpMxC= 8.25D+02 IAcc=3 IRadAn=         5 AccDes= 0.00D+00
 Harris functional with IExCor=  402 and IRadAn=       5 diagonalized for initial guess.
 HarFok:  IExCor=  402 AccDes= 0.00D+00 IRadAn=         5 IDoV= 1 UseB2=F ITyADJ=14
 ICtDFT=  3500011 ScaDFX=  1.000000  1.000000  1.000000  1.000000
 FoFCou: FMM=F IPFlag=           0 FMFlag=      100000 FMFlg1=           0
         NFxFlg=           0 DoJE=T BraDBF=F KetDBF=T FulRan=T
         wScrn=  0.000000 ICntrl=       500 IOpCl=  0 I1Cent=   200000004 NGrid=           0
         NMat0=    1 NMatS0=      1 NMatT0=    0 NMatD0=    1 NMtDS0=    0 NMtDT0=    0
 Symmetry not used in FoFCou.
 Harris En= -116.624110587792    
 JPrj=0 DoOrth=F DoCkMO=F.
 Leave Link  401 at Mon Feb  1 10:40:43 2021, MaxMem=    33554432 cpu:               0.4 elap:               0.1
 (Enter /home/madison/g16a03/g16/l502.exe)
 Keep R1 ints in memory in canonical form, NReq=3464975.
 FoFCou: FMM=F IPFlag=           0 FMFlag=           0 FMFlg1=           0
         NFxFlg=           0 DoJE=F BraDBF=F KetDBF=F FulRan=T
         wScrn=  0.000000 ICntrl=       600 IOpCl=  0 I1Cent=           0 NGrid=           0
         NMat0=    1 NMatS0=    190 NMatT0=    0 NMatD0=    1 NMtDS0=    0 NMtDT0=    0
 Symmetry not used in FoFCou.
 Two-electron integral symmetry not used.
 Closed shell SCF:
 Using DIIS extrapolation, IDIIS=  1040.
 NGot=    33554432 LenX=    33534923 LenY=    33534041
 Requested convergence on RMS density matrix=1.00D-08 within 128 cycles.
 Requested convergence on MAX density matrix=1.00D-06.
 Requested convergence on             energy=1.00D-06.
 No special actions if energy rises.
 Integral accuracy reduced to 1.0D-05 until final iterations.

 Cycle   1  Pass 0  IDiag  1:
 E= -116.505693661423    
 DIIS: error= 7.79D-02 at cycle   1 NSaved=   1.
 NSaved= 1 IEnMin= 1 EnMin= -116.505693661423     IErMin= 1 ErrMin= 7.79D-02
 ErrMax= 7.79D-02  0.00D+00 EMaxC= 1.00D-01 BMatC= 1.07D-01 BMatP= 1.07D-01
 IDIUse=3 WtCom= 2.21D-01 WtEn= 7.79D-01
 Coeff-Com:  0.100D+01
 Coeff-En:   0.100D+01
 Coeff:      0.100D+01
 Gap=     0.213 Goal=   None    Shift=    0.000
 GapD=    0.213 DampG=1.000 DampE=0.500 DampFc=0.5000 IDamp=-1.
 Damping current iteration by 5.00D-01
 RMSDP=2.99D-02 MaxDP=2.30D-01              OVMax= 2.01D-01

 Cycle   2  Pass 0  IDiag  1:
 E= -116.533195439440     Delta-E=       -0.027501778016 Rises=F Damp=T
 DIIS: error= 1.89D-02 at cycle   2 NSaved=   2.
 NSaved= 2 IEnMin= 2 EnMin= -116.533195439440     IErMin= 2 ErrMin= 1.89D-02
 ErrMax= 1.89D-02  0.00D+00 EMaxC= 1.00D-01 BMatC= 6.25D-03 BMatP= 1.07D-01
 IDIUse=3 WtCom= 8.11D-01 WtEn= 1.89D-01
 Coeff-Com:  0.180D+00 0.820D+00
 Coeff-En:   0.294D+00 0.706D+00
 Coeff:      0.201D+00 0.799D+00
 Gap=     0.344 Goal=   None    Shift=    0.000
 RMSDP=3.59D-03 MaxDP=3.84D-02 DE=-2.75D-02 OVMax= 1.12D-01

 Cycle   3  Pass 0  IDiag  1:
 E= -116.584741495824     Delta-E=       -0.051546056385 Rises=F Damp=F
 DIIS: error= 3.21D-03 at cycle   3 NSaved=   3.
 NSaved= 3 IEnMin= 3 EnMin= -116.584741495824     IErMin= 3 ErrMin= 3.21D-03
 ErrMax= 3.21D-03  0.00D+00 EMaxC= 1.00D-01 BMatC= 1.98D-04 BMatP= 6.25D-03
 IDIUse=3 WtCom= 9.68D-01 WtEn= 3.21D-02
 Coeff-Com:  0.374D-01-0.119D-01 0.975D+00
 Coeff-En:   0.000D+00 0.000D+00 0.100D+01
 Coeff:      0.362D-01-0.116D-01 0.975D+00
 Gap=     0.358 Goal=   None    Shift=    0.000
 RMSDP=4.76D-04 MaxDP=4.05D-03 DE=-5.15D-02 OVMax= 3.25D-03

 Cycle   4  Pass 0  IDiag  1:
 E= -116.584875274365     Delta-E=       -0.000133778540 Rises=F Damp=F
 DIIS: error= 3.53D-04 at cycle   4 NSaved=   4.
 NSaved= 4 IEnMin= 4 EnMin= -116.584875274365     IErMin= 4 ErrMin= 3.53D-04
 ErrMax= 3.53D-04  0.00D+00 EMaxC= 1.00D-01 BMatC= 2.06D-06 BMatP= 1.98D-04
 IDIUse=3 WtCom= 9.96D-01 WtEn= 3.53D-03
 Coeff-Com:  0.611D-02-0.175D-01 0.217D+00 0.794D+00
 Coeff-En:   0.000D+00 0.000D+00 0.000D+00 0.100D+01
 Coeff:      0.609D-02-0.174D-01 0.216D+00 0.795D+00
 Gap=     0.358 Goal=   None    Shift=    0.000
 RMSDP=3.85D-05 MaxDP=1.74D-04 DE=-1.34D-04 OVMax= 2.83D-04

 Cycle   5  Pass 0  IDiag  1:
 E= -116.584876746816     Delta-E=       -0.000001472451 Rises=F Damp=F
 DIIS: error= 5.31D-05 at cycle   5 NSaved=   5.
 NSaved= 5 IEnMin= 5 EnMin= -116.584876746816     IErMin= 5 ErrMin= 5.31D-05
 ErrMax= 5.31D-05  0.00D+00 EMaxC= 1.00D-01 BMatC= 3.98D-08 BMatP= 2.06D-06
 IDIUse=1 WtCom= 1.00D+00 WtEn= 0.00D+00
 Coeff-Com:  0.512D-03-0.321D-03-0.548D-03-0.560D-02 0.101D+01
 Coeff:      0.512D-03-0.321D-03-0.548D-03-0.560D-02 0.101D+01
 Gap=     0.358 Goal=   None    Shift=    0.000
 RMSDP=7.90D-06 MaxDP=7.13D-05 DE=-1.47D-06 OVMax= 4.33D-05

 Initial convergence to 1.0D-05 achieved.  Increase integral accuracy.
 Cycle   6  Pass 1  IDiag  1:
 E= -116.584877877116     Delta-E=       -0.000001130300 Rises=F Damp=F
 DIIS: error= 5.61D-07 at cycle   1 NSaved=   1.
 NSaved= 1 IEnMin= 1 EnMin= -116.584877877116     IErMin= 1 ErrMin= 5.61D-07
 ErrMax= 5.61D-07  0.00D+00 EMaxC= 1.00D-01 BMatC= 4.66D-12 BMatP= 4.66D-12
 IDIUse=1 WtCom= 1.00D+00 WtEn= 0.00D+00
 Coeff-Com:  0.100D+01
 Coeff:      0.100D+01
 Gap=     0.358 Goal=   None    Shift=    0.000
 RMSDP=7.90D-06 MaxDP=7.13D-05 DE=-1.13D-06 OVMax= 1.13D-06

 Cycle   7  Pass 1  IDiag  1:
 E= -116.584877877120     Delta-E=       -0.000000000004 Rises=F Damp=F
 DIIS: error= 3.40D-07 at cycle   2 NSaved=   2.
 NSaved= 2 IEnMin= 2 EnMin= -116.584877877120     IErMin= 2 ErrMin= 3.40D-07
 ErrMax= 3.40D-07  0.00D+00 EMaxC= 1.00D-01 BMatC= 1.90D-12 BMatP= 4.66D-12
 IDIUse=1 WtCom= 1.00D+00 WtEn= 0.00D+00
 Coeff-Com:  0.360D+00 0.640D+00
 Coeff:      0.360D+00 0.640D+00
 Gap=     0.358 Goal=   None    Shift=    0.000
 RMSDP=7.41D-08 MaxDP=5.13D-07 DE=-4.29D-12 OVMax= 5.30D-07

 Cycle   8  Pass 1  IDiag  1:
 E= -116.584877877121     Delta-E=       -0.000000000001 Rises=F Damp=F
 DIIS: error= 1.94D-07 at cycle   3 NSaved=   3.
 NSaved= 3 IEnMin= 3 EnMin= -116.584877877121     IErMin= 3 ErrMin= 1.94D-07
 ErrMax= 1.94D-07  0.00D+00 EMaxC= 1.00D-01 BMatC= 5.64D-13 BMatP= 1.90D-12
 IDIUse=1 WtCom= 1.00D+00 WtEn= 0.00D+00
 Coeff-Com: -0.368D-01 0.341D+00 0.696D+00
 Coeff:     -0.368D-01 0.341D+00 0.696D+00
 Gap=     0.358 Goal=   None    Shift=    0.000
 RMSDP=2.42D-08 MaxDP=1.89D-07 DE=-9.66D-13 OVMax= 1.61D-07

 Cycle   9  Pass 1  IDiag  1:
 E= -116.584877877122     Delta-E=       -0.000000000000 Rises=F Damp=F
 DIIS: error= 6.23D-09 at cycle   4 NSaved=   4.
 NSaved= 4 IEnMin= 4 EnMin= -116.584877877122     IErMin= 4 ErrMin= 6.23D-09
 ErrMax= 6.23D-09  0.00D+00 EMaxC= 1.00D-01 BMatC= 1.07D-15 BMatP= 5.64D-13
 IDIUse=1 WtCom= 1.00D+00 WtEn= 0.00D+00
 Coeff-Com: -0.112D-01 0.668D-01 0.156D+00 0.788D+00
 Coeff:     -0.112D-01 0.668D-01 0.156D+00 0.788D+00
 Gap=     0.358 Goal=   None    Shift=    0.000
 RMSDP=1.35D-09 MaxDP=6.42D-09 DE=-4.26D-13 OVMax= 1.23D-08

 SCF Done:  E(RB3LYP) =  -116.584877877     A.U. after    9 cycles
            NFock=  9  Conv=0.13D-08     -V/T= 2.5369
 KE= 7.585762575840D+01 PE=-1.989734544322D+02 EE= 3.752566943424D+01
 Leave Link  502 at Mon Feb  1 10:40:44 2021, MaxMem=    33554432 cpu:               0.9 elap:               0.2
 (Enter /home/madison/g16a03/g16/l601.exe)
 Copying SCF densities to generalized density rwf, IOpCl= 0 IROHF=0.

 **********************************************************************

            Population analysis using the SCF density.

 **********************************************************************

 Alpha  occ. eigenvalues --  -19.13445  -1.00079  -0.52163  -0.36996  -0.29046
 Alpha virt. eigenvalues --    0.06726   0.15379   0.78218   0.87096   0.89217
 Alpha virt. eigenvalues --    0.89706   1.07062   1.19354   1.73036   1.74442
 Alpha virt. eigenvalues --    1.78033   2.29584   2.59944   3.56057
          Condensed to atoms (all electrons):
               1          2          3
     1  O    8.285862   0.246321   0.246447
     2  H    0.246321   0.388292  -0.023733
     3  H    0.246447  -0.023733   0.387775
 Mulliken charges:
               1
     1  O   -0.778631
     2  H    0.389120
     3  H    0.389511
 Sum of Mulliken charges =  -0.00000
 Mulliken charges with hydrogens summed into heavy atoms:
               1
     1  O   -0.000000
 Electronic spatial extent (au):  <R**2>=           3288.5199
 Charge=             -0.0000 electrons
 Dipole moment (field-independent basis, Debye):
    X=             -2.0800    Y=              0.0000    Z=              0.0015  Tot=              2.0800
 Quadrupole moment (field-independent basis, Debye-Ang):
   XX=            -29.4284   YY=             -7.1811   ZZ=             -4.2859
   XY=              0.6096   XZ=             16.0221   YZ=             -0.0007
 Traceless Quadrupole moment (field-independent basis, Debye-Ang):
   XX=            -15.7966   YY=              6.4507   ZZ=              9.3459
   XY=              0.6096   XZ=             16.0221   YZ=             -0.0007
 Octapole moment (field-independent basis, Debye-Ang**2):
  XXX=           -300.4875  YYY=              6.3115  ZZZ=             98.7328  XYY=            -40.9414
  XXY=              8.6228  XXZ=            226.6203  XZZ=           -148.6147  YZZ=              1.2579
  YYZ=             55.2902  XYZ=             -4.6956
 Hexadecapole moment (field-independent basis, Debye-Ang**3):
 XXXX=          -2661.1510 YYYY=             -8.8860 ZZZZ=          -1524.9587 XXXY=             88.0401
 XXXZ=           2313.7756 YYYX=             35.8790 YYYZ=            -48.5947 ZZZX=           1532.6821
 ZZZY=            -28.9432 XXYY=           -235.8421 XXZZ=          -1895.4481 YYZZ=           -428.1548
 XXYZ=            -66.4018 YYXZ=            315.2243 ZZXY=             43.5521
 N-N=-3.099471863760D+01 E-N=-1.989734543452D+02  KE= 7.585762575840D+01
 No NMR shielding tensors so no spin-rotation constants.
 Leave Link  601 at Mon Feb  1 10:40:44 2021, MaxMem=    33554432 cpu:               0.3 elap:               0.1
 (Enter /home/madison/g16a03/g16/l602.exe)
 FitSet:  NAtFit=     3 NAtPot=     3 NAtFrz=     0 MDM=     7 TotChg=   0.00000
 Merz-Kollman atomic radii used.
 Read replacement radii for each type of atom:
 Atom Element Radius
    1     8    1.40
    2     1    1.20
    3     1    1.20

 **********************************************************************

            Electrostatic Properties Using The SCF Density

 **********************************************************************

       Atomic Center    1 is at   5.747608 -0.292967 -7.699327
       Atomic Center    2 is at   5.161608 -0.292967 -8.456329
       Atomic Center    3 is at   5.161608 -0.292967 -6.942327
     284 points will be used for fitting atomic charges
 Fitting point charges to electrostatic potential
 Charges from ESP fit, RMS=   0.00255 RRMS=   0.11399:
 ESP charges:
               1
     1  O   -0.757646
     2  H    0.378620
     3  H    0.379026
 Sum of ESP charges =   0.00000
 ESP charges with hydrogens summed into heavy atoms:
               1
     1  O    0.000000
 Charge=   0.00000 Dipole=    -2.1325    -0.0000     0.0015 Tot=     2.1325
 -----------------------------------------------------------------

              Electrostatic Properties (Atomic Units)

 -----------------------------------------------------------------
    Center     Electric         -------- Electric Field --------
               Potential          X             Y             Z
 -----------------------------------------------------------------
    1 Atom    -22.324157
    2 Atom     -1.002522
    3 Atom     -1.002327
 -----------------------------------------------------------------
 Leave Link  602 at Mon Feb  1 10:40:44 2021, MaxMem=    33554432 cpu:               0.1 elap:               0.0
 (Enter /home/madison/g16a03/g16/l9999.exe)

 Test job not archived.
 1\1\CRUNTCH3-GREENTEA\SP\RB3LYP\6-31G(d)\H2O1\MADISON\01-Feb-2021\0\\#
 P b3lyp/6-31G* SP Symmetry=None Charge=angstroms Population=(MK,ReadRa
 dii)\\QMMM\\0,1\O,0,5.747608,-0.292967,-7.699327\H,0,5.161608,-0.29296
 7,-8.456329\H,0,5.161608,-0.292967,-6.942327\\Version=ES64L-G16RevA.03
 \HF=-116.5848779\RMSD=1.347e-09\Dipole=-0.8183181,0.0000154,0.0005865\
 Quadrupole=-11.7443802,4.7959384,6.9484418,0.4532069,11.9120195,-0.000
 5467\PG=Unknown\\@


 WHEN A MATHEMATICIAN ENGAGED IN INVESTIGATING
 PHYSICAL ACTIONS AND RESULTS HAS ARRIVED AT HIS
 CONCLUSIONS, MAY THEY NOT BE EXPRESSED IN COMMON
 LANGUAGE AS FULLY, CLEARLY, AND DEFINITELY AS IN
 MATHEMATICAL FORMULAE?
           - LETTER FROM M. FARADAY TO J.C. MAXWELL, 1857.
 Job cpu time:       0 days  0 hours  0 minutes  3.0 seconds.
 Elapsed time:       0 days  0 hours  0 minutes  0.8 seconds.
 File lengths (MBytes):  RWF=      6 Int=      0 D2E=      0 Chk=      1 Scr=      1
 Normal termination of Gaussian 16 at Mon Feb  1 10:40:44 2021.
