 Entering Gaussian System, Link 0=g16
 Input=LICHM_0.com
 Output=LICHM_0.log
 Initial command:
 /home/madison/g16a03/g16/l1.exe "/tmp/Gau-4792.inp" -scrdir="/tmp/"
 Entering Link 1 = /home/madison/g16a03/g16/l1.exe PID=      4794.
  
 Copyright (c) 1988,1990,1992,1993,1995,1998,2003,2009,2016,
            Gaussian, Inc.  All Rights Reserved.
  
 This is part of the Gaussian(R) 16 program.  It is based on
 the Gaussian(R) 09 system (copyright 2009, Gaussian, Inc.),
 the Gaussian(R) 03 system (copyright 2003, Gaussian, Inc.),
 the Gaussian(R) 98 system (copyright 1998, Gaussian, Inc.),
 the Gaussian(R) 94 system (copyright 1995, Gaussian, Inc.),
 the Gaussian 92(TM) system (copyright 1992, Gaussian, Inc.),
 the Gaussian 90(TM) system (copyright 1990, Gaussian, Inc.),
 the Gaussian 88(TM) system (copyright 1988, Gaussian, Inc.),
 the Gaussian 86(TM) system (copyright 1986, Carnegie Mellon
 University), and the Gaussian 82(TM) system (copyright 1983,
 Carnegie Mellon University). Gaussian is a federally registered
 trademark of Gaussian, Inc.
  
 This software contains proprietary and confidential information,
 including trade secrets, belonging to Gaussian, Inc.
  
 This software is provided under written license and may be
 used, copied, transmitted, or stored only in accord with that
 written license.
  
 The following legend is applicable only to US Government
 contracts under FAR:
  
                    RESTRICTED RIGHTS LEGEND
  
 Use, reproduction and disclosure by the US Government is
 subject to restrictions as set forth in subparagraphs (a)
 and (c) of the Commercial Computer Software - Restricted
 Rights clause in FAR 52.227-19.
  
 Gaussian, Inc.
 340 Quinnipiac St., Bldg. 40, Wallingford CT 06492
  
  
 ---------------------------------------------------------------
 Warning -- This program may not be used in any manner that
 competes with the business of Gaussian, Inc. or will provide
 assistance to any competitor of Gaussian, Inc.  The licensee
 of this program is prohibited from giving any competitor of
 Gaussian, Inc. access to this program.  By using this program,
 the user acknowledges that Gaussian, Inc. is engaged in the
 business of creating and licensing software in the field of
 computational chemistry and represents and warrants to the
 licensee that it is not a competitor of Gaussian, Inc. and that
 it will not use this program in any manner prohibited above.
 ---------------------------------------------------------------
  

 Cite this work as:
 Gaussian 16, Revision A.03,
 M. J. Frisch, G. W. Trucks, H. B. Schlegel, G. E. Scuseria, 
 M. A. Robb, J. R. Cheeseman, G. Scalmani, V. Barone, 
 G. A. Petersson, H. Nakatsuji, X. Li, M. Caricato, A. V. Marenich, 
 J. Bloino, B. G. Janesko, R. Gomperts, B. Mennucci, H. P. Hratchian, 
 J. V. Ortiz, A. F. Izmaylov, J. L. Sonnenberg, D. Williams-Young, 
 F. Ding, F. Lipparini, F. Egidi, J. Goings, B. Peng, A. Petrone, 
 T. Henderson, D. Ranasinghe, V. G. Zakrzewski, J. Gao, N. Rega, 
 G. Zheng, W. Liang, M. Hada, M. Ehara, K. Toyota, R. Fukuda, 
 J. Hasegawa, M. Ishida, T. Nakajima, Y. Honda, O. Kitao, H. Nakai, 
 T. Vreven, K. Throssell, J. A. Montgomery, Jr., J. E. Peralta, 
 F. Ogliaro, M. J. Bearpark, J. J. Heyd, E. N. Brothers, K. N. Kudin, 
 V. N. Staroverov, T. A. Keith, R. Kobayashi, J. Normand, 
 K. Raghavachari, A. P. Rendell, J. C. Burant, S. S. Iyengar, 
 J. Tomasi, M. Cossi, J. M. Millam, M. Klene, C. Adamo, R. Cammi, 
 J. W. Ochterski, R. L. Martin, K. Morokuma, O. Farkas, 
 J. B. Foresman, and D. J. Fox, Gaussian, Inc., Wallingford CT, 2016.
 
 ******************************************
 Gaussian 16:  ES64L-G16RevA.03 25-Dec-2016
                20-Jan-2021 
 ******************************************
 %chk=LICHM_0.chk
 %Mem=256MB
 %CPU=0-3
 SetSPE:  set environment variable "MP_BIND" = "yes"
 SetSPE:  set environment variable "MP_BLIST" = "0,1,2,3"
 Will use up to    4 processors via shared memory.
 ----------------------------------------------------------------------
 #P b3lyp/6-31G* SP Symmetry=None Guess=TCheck Charge=angstroms Populat
 ion=(MK,ReadRadii)
 ----------------------------------------------------------------------
 1/18=10,28=-2,38=1,125=111,172=1/1;
 2/12=2,15=3,17=6,18=5,40=1/2;
 3/5=1,6=6,7=1,11=2,25=1,30=1,74=-5,116=-2/1,2,3;
 4/5=101/1;
 5/5=2,38=6/2;
 6/7=2,8=2,9=2,10=2,15=8,20=101,28=1/1,2;
 99/5=1,9=1/99;
 Leave Link    1 at Wed Jan 20 12:31:30 2021, MaxMem=    33554432 cpu:               0.1 elap:               0.0
 (Enter /home/madison/g16a03/g16/l101.exe)
 ----
 QMMM
 ----
 Symbolic Z-matrix:
 Charge =  0 Multiplicity = 1
 O                     0.874     0.       -1.247 
 H                     0.288     0.       -2.004 
 H                     0.288     0.       -0.49 
 
 ITRead=  0  0  0
 MicOpt= -1 -1 -1
 NAtoms=      3 NQM=        3 NQMF=       0 NMMI=      0 NMMIF=      0
                NMic=       0 NMicF=      0.
                    Isotopes and Nuclear Properties:
 (Nuclear quadrupole moments (NQMom) in fm**2, nuclear magnetic moments (NMagM)
  in nuclear magnetons)

  Atom         1           2           3
 IAtWgt=          16           1           1
 AtmWgt=  15.9949146   1.0078250   1.0078250
 NucSpn=           0           1           1
 AtZEff=  -0.0000000  -0.0000000  -0.0000000
 NQMom=    0.0000000   0.0000000   0.0000000
 NMagM=    0.0000000   2.7928460   2.7928460
 AtZNuc=   8.0000000   1.0000000   1.0000000
 Background charge distribution read from input stream:
 Point Charges:
 XYZ=   -0.6491   -0.0000    1.1067 Q=   -2.3164 A=    0.0000 R=    0.0000 C=    0.0000
 XYZ=   -0.7537    0.0000    1.2619 Q=    0.4060 A=    0.0000 R=    0.0000 C=    0.0000
 XYZ=   -0.7790    0.1323    1.1320 Q=    1.9362 A=    0.0000 R=    0.0000 C=    0.0000
 XYZ=   -0.9089    0.0000    1.1573 Q=   -2.3164 A=    0.0000 R=    0.0000 C=    0.0000
 XYZ=   -0.8043   -0.0000    1.0021 Q=   -0.1652 A=    0.0000 R=    0.0000 C=    0.0000
 XYZ=   -0.7790   -0.1323    1.1320 Q=    1.9362 A=    0.0000 R=    0.0000 C=    0.0000
 XYZ=   -0.7969    0.7570    1.7323 Q=   -0.5294 A=    0.0000 R=    0.0000 C=    0.0000
 XYZ=   -0.6513    0.8607    1.7876 Q=    0.9276 A=    0.0000 R=    0.0000 C=    0.0000
 XYZ=   -0.6472    0.6749    1.8088 Q=   -0.2312 A=    0.0000 R=    0.0000 C=    0.0000
 XYZ=   -0.5371    0.7570    1.6817 Q=   -0.5294 A=    0.0000 R=    0.0000 C=    0.0000
 XYZ=   -0.6827    0.6533    1.6264 Q=    0.6966 A=    0.0000 R=    0.0000 C=    0.0000
 XYZ=   -0.6868    0.8391    1.6052 Q=   -0.0742 A=    0.0000 R=    0.0000 C=    0.0000
 XYZ=   -0.7969   -0.7570    1.7323 Q=   -0.5294 A=    0.0000 R=    0.0000 C=    0.0000
 XYZ=   -0.6827   -0.6533    1.6264 Q=    0.6966 A=    0.0000 R=    0.0000 C=    0.0000
 XYZ=   -0.6472   -0.6749    1.8088 Q=   -0.2312 A=    0.0000 R=    0.0000 C=    0.0000
 XYZ=   -0.5371   -0.7570    1.6817 Q=   -0.5294 A=    0.0000 R=    0.0000 C=    0.0000
 XYZ=   -0.6513   -0.8607    1.7876 Q=    0.9276 A=    0.0000 R=    0.0000 C=    0.0000
 XYZ=   -0.6868   -0.8391    1.6052 Q=   -0.0742 A=    0.0000 R=    0.0000 C=    0.0000
 Pt Chg Charge=              0.0000 electrons
 Pt Chg Dipole moment (Debye):
    X=              0.3539    Y=              0.0000    Z=              1.8168  Tot=              1.8510
 Pt Chg Quadrupole moment (Debye-Ang):
   XX=             -1.0623   YY=              2.4398   ZZ=              5.0375
   XY=             -0.0000   XZ=             -0.7242   YZ=              0.0000
 Pt Chg Traceless Quadrupole moment (Debye-Ang):
   XX=             -3.2006   YY=              0.3014   ZZ=              2.8992
   XY=             -0.0000   XZ=             -0.7242   YZ=              0.0000
 Pt Chg Octapole moment (Debye-Ang**2):
  XXX=              1.7852  YYY=              0.0000  ZZZ=             10.7395  XYY=             -1.6151
  XXY=              0.0000  XXZ=             -0.6199  XZZ=             -2.6530  YZZ=              0.0000
  YYZ=              4.2276  XYZ=             -0.0000
 Pt Chg Hexadecapole moment (Debye-Ang**3):
 XXXX=             -2.3857 YYYY=              1.9602 ZZZZ=             20.8590 XXXY=             -0.0000
 XXXZ=              1.8214 YYYX=             -0.0000 YYYZ=              0.0000 ZZZX=             -6.0763
 ZZZY=              0.0000 XXYY=              0.9766 XXZZ=              0.2371 YYZZ=              7.4736
 XXYZ=              0.0000 YYXZ=             -2.7499 ZZXY=             -0.0000
 Leave Link  101 at Wed Jan 20 12:31:30 2021, MaxMem=    33554432 cpu:               0.5 elap:               0.1
 (Enter /home/madison/g16a03/g16/l202.exe)
                          Input orientation:                          
 ---------------------------------------------------------------------
 Center     Atomic      Atomic             Coordinates (Angstroms)
 Number     Number       Type             X           Y           Z
 ---------------------------------------------------------------------
      1          8           0        0.874000    0.000000   -1.247000
      2          1           0        0.288000    0.000000   -2.004000
      3          1           0        0.288000    0.000000   -0.490000
 ---------------------------------------------------------------------
                    Distance matrix (angstroms):
                    1          2          3
     1  O    0.000000
     2  H    0.957311   0.000000
     3  H    0.957311   1.514000   0.000000
 Symmetry turned off by external request.
 Stoichiometry    H2O
 Rotational constants (GHZ):         822.1522170         437.5324837         285.5621738
 Leave Link  202 at Wed Jan 20 12:31:30 2021, MaxMem=    33554432 cpu:               0.0 elap:               0.0
 (Enter /home/madison/g16a03/g16/l301.exe)
 Standard basis: 6-31G(d) (6D, 7F)
 Ernie: Thresh=  0.10000D-02 Tol=  0.10000D-05 Strict=F.
    19 basis functions,    36 primitive gaussians,    19 cartesian basis functions
     5 alpha electrons        5 beta electrons
       nuclear repulsion energy         9.1939131606 Hartrees.
 IExCor=  402 DFT=T Ex+Corr=B3LYP ExCW=0 ScaHFX=  0.200000
 ScaDFX=  0.800000  0.720000  1.000000  0.810000 ScalE2=  1.000000  1.000000
 IRadAn=      5 IRanWt=     -1 IRanGd=            0 ICorTp=0 IEmpDi=  4
 NAtoms=    3 NActive=    3 NUniq=    3 SFac= 1.00D+00 NAtFMM=   60 NAOKFM=F Big=F
 Integral buffers will be    131072 words long.
 Raffenetti 2 integral format.
 Two-electron integral symmetry is turned off.
 Background charge distribution read from rwf.
 PtFMM for NChg=        21 BoxLen=    40.00 Levels= 0 LMax=20 SMax=     7.2 ICnFMM=     1:
 Self energy of the charges =       -40.1760650981 a.u.
 MM   energy of the charges =         0.0000000000 a.u.
 Nuclei-charges interaction =        -0.2198106213 a.u.
 Nuclear repulsion after external point charges =      -31.2019625588 Hartrees.
 Leave Link  301 at Wed Jan 20 12:31:30 2021, MaxMem=    33554432 cpu:               0.1 elap:               0.0
 (Enter /home/madison/g16a03/g16/l302.exe)
 NPDir=0 NMtPBC=     1 NCelOv=     1 NCel=       1 NClECP=     1 NCelD=      1
         NCelK=      1 NCelE2=     1 NClLst=     1 CellRange=     0.0.
 One-electron integrals computed using PRISM.
 NBasis=    19 RedAO= T EigKep=  2.23D-02  NBF=    19
 NBsUse=    19 1.00D-06 EigRej= -1.00D+00 NBFU=    19
 Precomputing XC quadrature grid using
 IXCGrd= 4 IRadAn=           5 IRanWt=          -1 IRanGd=           0 AccXCQ= 0.00D+00.
 Generated NRdTot=       0 NPtTot=           0 NUsed=           0 NTot=          32
 NSgBfM=    19    19    19    19    19 MxSgAt=     3 MxSgA2=     3.
 Leave Link  302 at Wed Jan 20 12:31:30 2021, MaxMem=    33554432 cpu:               0.3 elap:               0.1
 (Enter /home/madison/g16a03/g16/l303.exe)
 DipDrv:  MaxL=1.
 Leave Link  303 at Wed Jan 20 12:31:30 2021, MaxMem=    33554432 cpu:               0.1 elap:               0.0
 (Enter /home/madison/g16a03/g16/l401.exe)
 SCF restart from the checkpoint file:  "LICHM_0.chk"
 B after Tr=     0.000000    0.000000    0.000000
         Rot=    1.000000    0.000000    0.000000    0.000000 Ang=   0.00 deg.
 Guess basis will be translated and rotated to current coordinates.
 JPrj=2 DoOrth=T DoCkMO=T.
 Leave Link  401 at Wed Jan 20 12:31:30 2021, MaxMem=    33554432 cpu:               0.2 elap:               0.1
 (Enter /home/madison/g16a03/g16/l502.exe)
 Keep R1 ints in memory in canonical form, NReq=3464975.
 FoFCou: FMM=F IPFlag=           0 FMFlag=           0 FMFlg1=           0
         NFxFlg=           0 DoJE=F BraDBF=F KetDBF=F FulRan=T
         wScrn=  0.000000 ICntrl=       600 IOpCl=  0 I1Cent=           0 NGrid=           0
         NMat0=    1 NMatS0=    190 NMatT0=    0 NMatD0=    1 NMtDS0=    0 NMtDT0=    0
 Symmetry not used in FoFCou.
 Two-electron integral symmetry not used.
 Closed shell SCF:
 Using DIIS extrapolation, IDIIS=  1040.
 NGot=    33554432 LenX=    33534923 LenY=    33534041
 Requested convergence on RMS density matrix=1.00D-08 within 128 cycles.
 Requested convergence on MAX density matrix=1.00D-06.
 Requested convergence on             energy=1.00D-06.
 No special actions if energy rises.

 Cycle   1  Pass 1  IDiag  1:
 E= -116.594326432771    
 DIIS: error= 3.39D-09 at cycle   1 NSaved=   1.
 NSaved= 1 IEnMin= 1 EnMin= -116.594326432771     IErMin= 1 ErrMin= 3.39D-09
 ErrMax= 3.39D-09  0.00D+00 EMaxC= 1.00D-01 BMatC= 2.01D-16 BMatP= 2.01D-16
 IDIUse=1 WtCom= 1.00D+00 WtEn= 0.00D+00
 Coeff-Com:  0.100D+01
 Coeff:      0.100D+01
 Gap=     0.366 Goal=   None    Shift=    0.000
 RMSDP=1.11D-09 MaxDP=7.47D-09              OVMax= 8.08D-09

 SCF Done:  E(RB3LYP) =  -116.594326433     A.U. after    1 cycles
            NFock=  1  Conv=0.11D-08     -V/T= 2.5371
 KE= 7.585247271384D+01 PE=-1.988016332201D+02 EE= 3.755679663228D+01
 Leave Link  502 at Wed Jan 20 12:31:31 2021, MaxMem=    33554432 cpu:               0.4 elap:               0.1
 (Enter /home/madison/g16a03/g16/l601.exe)
 Copying SCF densities to generalized density rwf, IOpCl= 0 IROHF=0.

 **********************************************************************

            Population analysis using the SCF density.

 **********************************************************************

 Alpha  occ. eigenvalues --  -19.11075  -0.97716  -0.49704  -0.34810  -0.26929
 Alpha virt. eigenvalues --    0.09639   0.19473   0.80667   0.89479   0.91165
 Alpha virt. eigenvalues --    0.91949   1.09582   1.21985   1.75165   1.76547
 Alpha virt. eigenvalues --    1.80113   2.31881   2.62263   3.58314
          Condensed to atoms (all electrons):
               1          2          3
     1  O    8.312582   0.244198   0.255748
     2  H    0.244198   0.396310  -0.022367
     3  H    0.255748  -0.022367   0.335949
 Mulliken charges:
               1
     1  O   -0.812528
     2  H    0.381859
     3  H    0.430669
 Sum of Mulliken charges =   0.00000
 Mulliken charges with hydrogens summed into heavy atoms:
               1
     1  O    0.000000
 Electronic spatial extent (au):  <R**2>=             97.6926
 Charge=              0.0000 electrons
 Dipole moment (field-independent basis, Debye):
    X=             -2.1843    Y=             -0.0000    Z=              0.1595  Tot=              2.1901
 Quadrupole moment (field-independent basis, Debye-Ang):
   XX=             -9.2870   YY=             -7.1872   ZZ=             -4.5813
   XY=             -0.0000   XZ=              2.7705   YZ=              0.0000
 Traceless Quadrupole moment (field-independent basis, Debye-Ang):
   XX=             -2.2685   YY=             -0.1687   ZZ=              2.4372
   XY=             -0.0000   XZ=              2.7705   YZ=              0.0000
 Octapole moment (field-independent basis, Debye-Ang**2):
  XXX=            -18.6700  YYY=             -0.0000  ZZZ=             16.6439  XYY=             -5.8011
  XXY=             -0.0000  XXZ=             11.6588  XZZ=             -7.9576  YZZ=             -0.0000
  YYZ=              9.0078  XYZ=              0.0000
 Hexadecapole moment (field-independent basis, Debye-Ang**3):
 XXXX=            -34.5301 YYYY=             -5.1918 ZZZZ=            -47.2399 XXXY=             -0.0000
 XXXZ=             23.3597 YYYX=             -0.0000 YYYZ=              0.0000 ZZZX=             21.1465
 ZZZY=              0.0000 XXYY=             -6.6002 XXZZ=            -20.6354 YYZZ=            -13.3534
 XXYZ=              0.0000 YYXZ=              7.2459 ZZXY=             -0.0000
 N-N=-3.120196255880D+01 E-N=-1.988016334153D+02  KE= 7.585247271384D+01
 No NMR shielding tensors so no spin-rotation constants.
 Leave Link  601 at Wed Jan 20 12:31:31 2021, MaxMem=    33554432 cpu:               0.3 elap:               0.1
 (Enter /home/madison/g16a03/g16/l602.exe)
 FitSet:  NAtFit=     3 NAtPot=     3 NAtFrz=     0 MDM=     7 TotChg=   0.00000
 Merz-Kollman atomic radii used.
 Read replacement radii for each type of atom:
 Atom Element Radius
    1     8    1.40
    2     1    1.20
    3     1    1.20

 **********************************************************************

            Electrostatic Properties Using The SCF Density

 **********************************************************************

       Atomic Center    1 is at   0.874000  0.000000 -1.247000
       Atomic Center    2 is at   0.288000  0.000000 -2.004000
       Atomic Center    3 is at   0.288000  0.000000 -0.490000
     284 points will be used for fitting atomic charges
 Fitting point charges to electrostatic potential
 Charges from ESP fit, RMS=   0.00250 RRMS=   0.10657:
 ESP charges:
               1
     1  O   -0.794137
     2  H    0.375302
     3  H    0.418834
 Sum of ESP charges =   0.00000
 ESP charges with hydrogens summed into heavy atoms:
               1
     1  O    0.000000
 Charge=   0.00000 Dipole=    -2.2352     0.0000     0.1583 Tot=     2.2408
 -----------------------------------------------------------------

              Electrostatic Properties (Atomic Units)

 -----------------------------------------------------------------
    Center     Electric         -------- Electric Field --------
               Potential          X             Y             Z
 -----------------------------------------------------------------
    1 Atom    -22.328654
    2 Atom     -1.008480
    3 Atom     -0.985851
 -----------------------------------------------------------------
 Leave Link  602 at Wed Jan 20 12:31:31 2021, MaxMem=    33554432 cpu:               0.2 elap:               0.1
 (Enter /home/madison/g16a03/g16/l9999.exe)

 Test job not archived.
 1\1\CRUNTCH3-GREENTEA\SP\RB3LYP\6-31G(d)\H2O1\MADISON\20-Jan-2021\0\\#
 P b3lyp/6-31G* SP Symmetry=None Guess=TCheck Charge=angstroms Populati
 on=(MK,ReadRadii)\\QMMM\\0,1\O,0,0.874,0.,-1.247\H,0,0.288,0.,-2.004\H
 ,0,0.288,0.,-0.49\\Version=ES64L-G16RevA.03\HF=-116.5943264\RMSD=1.110
 e-09\Dipole=-0.8593722,0.,0.062764\Quadrupole=-1.686608,-0.1254242,1.8
 120322,0.,2.059827,0.\PG=Unknown\\@


 The mind is not a vessel to be filled but a fire to be kindled.
                                  -- Plutarch
 Job cpu time:       0 days  0 hours  0 minutes  2.7 seconds.
 Elapsed time:       0 days  0 hours  0 minutes  0.8 seconds.
 File lengths (MBytes):  RWF=      6 Int=      0 D2E=      0 Chk=      1 Scr=      1
 Normal termination of Gaussian 16 at Wed Jan 20 12:31:31 2021.
