 Entering Gaussian System, Link 0=g16
 Input=LICHM_0.com
 Output=LICHM_0.log
 Initial command:
 /home/madison/g16a03/g16/l1.exe "/tmp/Gau-30499.inp" -scrdir="/tmp/"
 Entering Link 1 = /home/madison/g16a03/g16/l1.exe PID=     30501.
  
 Copyright (c) 1988,1990,1992,1993,1995,1998,2003,2009,2016,
            Gaussian, Inc.  All Rights Reserved.
  
 This is part of the Gaussian(R) 16 program.  It is based on
 the Gaussian(R) 09 system (copyright 2009, Gaussian, Inc.),
 the Gaussian(R) 03 system (copyright 2003, Gaussian, Inc.),
 the Gaussian(R) 98 system (copyright 1998, Gaussian, Inc.),
 the Gaussian(R) 94 system (copyright 1995, Gaussian, Inc.),
 the Gaussian 92(TM) system (copyright 1992, Gaussian, Inc.),
 the Gaussian 90(TM) system (copyright 1990, Gaussian, Inc.),
 the Gaussian 88(TM) system (copyright 1988, Gaussian, Inc.),
 the Gaussian 86(TM) system (copyright 1986, Carnegie Mellon
 University), and the Gaussian 82(TM) system (copyright 1983,
 Carnegie Mellon University). Gaussian is a federally registered
 trademark of Gaussian, Inc.
  
 This software contains proprietary and confidential information,
 including trade secrets, belonging to Gaussian, Inc.
  
 This software is provided under written license and may be
 used, copied, transmitted, or stored only in accord with that
 written license.
  
 The following legend is applicable only to US Government
 contracts under FAR:
  
                    RESTRICTED RIGHTS LEGEND
  
 Use, reproduction and disclosure by the US Government is
 subject to restrictions as set forth in subparagraphs (a)
 and (c) of the Commercial Computer Software - Restricted
 Rights clause in FAR 52.227-19.
  
 Gaussian, Inc.
 340 Quinnipiac St., Bldg. 40, Wallingford CT 06492
  
  
 ---------------------------------------------------------------
 Warning -- This program may not be used in any manner that
 competes with the business of Gaussian, Inc. or will provide
 assistance to any competitor of Gaussian, Inc.  The licensee
 of this program is prohibited from giving any competitor of
 Gaussian, Inc. access to this program.  By using this program,
 the user acknowledges that Gaussian, Inc. is engaged in the
 business of creating and licensing software in the field of
 computational chemistry and represents and warrants to the
 licensee that it is not a competitor of Gaussian, Inc. and that
 it will not use this program in any manner prohibited above.
 ---------------------------------------------------------------
  

 Cite this work as:
 Gaussian 16, Revision A.03,
 M. J. Frisch, G. W. Trucks, H. B. Schlegel, G. E. Scuseria, 
 M. A. Robb, J. R. Cheeseman, G. Scalmani, V. Barone, 
 G. A. Petersson, H. Nakatsuji, X. Li, M. Caricato, A. V. Marenich, 
 J. Bloino, B. G. Janesko, R. Gomperts, B. Mennucci, H. P. Hratchian, 
 J. V. Ortiz, A. F. Izmaylov, J. L. Sonnenberg, D. Williams-Young, 
 F. Ding, F. Lipparini, F. Egidi, J. Goings, B. Peng, A. Petrone, 
 T. Henderson, D. Ranasinghe, V. G. Zakrzewski, J. Gao, N. Rega, 
 G. Zheng, W. Liang, M. Hada, M. Ehara, K. Toyota, R. Fukuda, 
 J. Hasegawa, M. Ishida, T. Nakajima, Y. Honda, O. Kitao, H. Nakai, 
 T. Vreven, K. Throssell, J. A. Montgomery, Jr., J. E. Peralta, 
 F. Ogliaro, M. J. Bearpark, J. J. Heyd, E. N. Brothers, K. N. Kudin, 
 V. N. Staroverov, T. A. Keith, R. Kobayashi, J. Normand, 
 K. Raghavachari, A. P. Rendell, J. C. Burant, S. S. Iyengar, 
 J. Tomasi, M. Cossi, J. M. Millam, M. Klene, C. Adamo, R. Cammi, 
 J. W. Ochterski, R. L. Martin, K. Morokuma, O. Farkas, 
 J. B. Foresman, and D. J. Fox, Gaussian, Inc., Wallingford CT, 2016.
 
 ******************************************
 Gaussian 16:  ES64L-G16RevA.03 25-Dec-2016
                 1-Feb-2021 
 ******************************************
 %chk=LICHM_0.chk
 %Mem=256MB
 %CPU=0-3
 SetSPE:  set environment variable "MP_BIND" = "yes"
 SetSPE:  set environment variable "MP_BLIST" = "0,1,2,3"
 Will use up to    4 processors via shared memory.
 ----------------------------------------------------------------------
 #P b3lyp/6-31G* SP Symmetry=None Charge=angstroms Population=(MK,ReadR
 adii)
 ----------------------------------------------------------------------
 1/18=10,28=-2,38=1,125=111,172=1/1;
 2/12=2,15=3,17=6,18=5,40=1/2;
 3/5=1,6=6,7=1,11=2,25=1,30=1,74=-5/1,2,3;
 4//1;
 5/5=2,38=5/2;
 6/7=2,8=2,9=2,10=2,15=8,20=101,28=1/1,2;
 99/5=1,9=1/99;
 Leave Link    1 at Mon Feb  1 10:14:42 2021, MaxMem=    33554432 cpu:               0.1 elap:               0.0
 (Enter /home/madison/g16a03/g16/l101.exe)
 ----
 QMMM
 ----
 Symbolic Z-matrix:
 Charge =  0 Multiplicity = 1
 O                     2.71081  -0.11276  -3.74379 
 H                     2.1248   -0.11276  -4.50079 
 H                     2.1248   -0.11276  -2.98679 
 
 ITRead=  0  0  0
 MicOpt= -1 -1 -1
 NAtoms=      3 NQM=        3 NQMF=       0 NMMI=      0 NMMIF=      0
                NMic=       0 NMicF=      0.
                    Isotopes and Nuclear Properties:
 (Nuclear quadrupole moments (NQMom) in fm**2, nuclear magnetic moments (NMagM)
  in nuclear magnetons)

  Atom         1           2           3
 IAtWgt=          16           1           1
 AtmWgt=  15.9949146   1.0078250   1.0078250
 NucSpn=           0           1           1
 AtZEff=  -0.0000000  -0.0000000  -0.0000000
 NQMom=    0.0000000   0.0000000   0.0000000
 NMagM=    0.0000000   2.7928460   2.7928460
 AtZNuc=   8.0000000   1.0000000   1.0000000
 Background charge distribution read from input stream:
 Point Charges:
 XYZ=   -0.6491   -0.0000    1.1067 Q=   -2.3164 A=    0.0000 R=    0.0000 C=    0.0000
 XYZ=   -0.7537    0.0000    1.2619 Q=    0.4060 A=    0.0000 R=    0.0000 C=    0.0000
 XYZ=   -0.7790    0.1323    1.1320 Q=    1.9362 A=    0.0000 R=    0.0000 C=    0.0000
 XYZ=   -0.9089    0.0000    1.1573 Q=   -2.3164 A=    0.0000 R=    0.0000 C=    0.0000
 XYZ=   -0.8043   -0.0000    1.0021 Q=   -0.1652 A=    0.0000 R=    0.0000 C=    0.0000
 XYZ=   -0.7790   -0.1323    1.1320 Q=    1.9362 A=    0.0000 R=    0.0000 C=    0.0000
 XYZ=   -0.7969    0.7570    1.7323 Q=   -0.5294 A=    0.0000 R=    0.0000 C=    0.0000
 XYZ=   -0.6513    0.8607    1.7876 Q=    0.9276 A=    0.0000 R=    0.0000 C=    0.0000
 XYZ=   -0.6472    0.6749    1.8088 Q=   -0.2312 A=    0.0000 R=    0.0000 C=    0.0000
 XYZ=   -0.5371    0.7570    1.6817 Q=   -0.5294 A=    0.0000 R=    0.0000 C=    0.0000
 XYZ=   -0.6827    0.6533    1.6264 Q=    0.6966 A=    0.0000 R=    0.0000 C=    0.0000
 XYZ=   -0.6868    0.8391    1.6052 Q=   -0.0742 A=    0.0000 R=    0.0000 C=    0.0000
 XYZ=   -0.7969   -0.7570    1.7323 Q=   -0.5294 A=    0.0000 R=    0.0000 C=    0.0000
 XYZ=   -0.6827   -0.6533    1.6264 Q=    0.6966 A=    0.0000 R=    0.0000 C=    0.0000
 XYZ=   -0.6472   -0.6749    1.8088 Q=   -0.2312 A=    0.0000 R=    0.0000 C=    0.0000
 XYZ=   -0.5371   -0.7570    1.6817 Q=   -0.5294 A=    0.0000 R=    0.0000 C=    0.0000
 XYZ=   -0.6513   -0.8607    1.7876 Q=    0.9276 A=    0.0000 R=    0.0000 C=    0.0000
 XYZ=   -0.6868   -0.8391    1.6052 Q=   -0.0742 A=    0.0000 R=    0.0000 C=    0.0000
 Pt Chg Charge=              0.0000 electrons
 Pt Chg Dipole moment (Debye):
    X=              0.3539    Y=              0.0000    Z=              1.8168  Tot=              1.8510
 Pt Chg Quadrupole moment (Debye-Ang):
   XX=             -1.0623   YY=              2.4398   ZZ=              5.0375
   XY=             -0.0000   XZ=             -0.7242   YZ=              0.0000
 Pt Chg Traceless Quadrupole moment (Debye-Ang):
   XX=             -3.2006   YY=              0.3014   ZZ=              2.8992
   XY=             -0.0000   XZ=             -0.7242   YZ=              0.0000
 Pt Chg Octapole moment (Debye-Ang**2):
  XXX=              1.7852  YYY=              0.0000  ZZZ=             10.7395  XYY=             -1.6151
  XXY=              0.0000  XXZ=             -0.6199  XZZ=             -2.6530  YZZ=              0.0000
  YYZ=              4.2276  XYZ=             -0.0000
 Pt Chg Hexadecapole moment (Debye-Ang**3):
 XXXX=             -2.3857 YYYY=              1.9602 ZZZZ=             20.8590 XXXY=             -0.0000
 XXXZ=              1.8214 YYYX=             -0.0000 YYYZ=              0.0000 ZZZX=             -6.0763
 ZZZY=              0.0000 XXYY=              0.9766 XXZZ=              0.2371 YYZZ=              7.4736
 XXYZ=              0.0000 YYXZ=             -2.7499 ZZXY=             -0.0000
 Leave Link  101 at Mon Feb  1 10:14:42 2021, MaxMem=    33554432 cpu:               0.5 elap:               0.1
 (Enter /home/madison/g16a03/g16/l202.exe)
                          Input orientation:                          
 ---------------------------------------------------------------------
 Center     Atomic      Atomic             Coordinates (Angstroms)
 Number     Number       Type             X           Y           Z
 ---------------------------------------------------------------------
      1          8           0        2.710805   -0.112757   -3.743790
      2          1           0        2.124805   -0.112757   -4.500790
      3          1           0        2.124805   -0.112757   -2.986790
 ---------------------------------------------------------------------
                    Distance matrix (angstroms):
                    1          2          3
     1  O    0.000000
     2  H    0.957311   0.000000
     3  H    0.957311   1.514000   0.000000
 Symmetry turned off by external request.
 Stoichiometry    H2O
 Rotational constants (GHZ):         822.1522170         437.5324837         285.5621738
 Leave Link  202 at Mon Feb  1 10:14:42 2021, MaxMem=    33554432 cpu:               0.0 elap:               0.0
 (Enter /home/madison/g16a03/g16/l301.exe)
 Standard basis: 6-31G(d) (6D, 7F)
 Ernie: Thresh=  0.10000D-02 Tol=  0.10000D-05 Strict=F.
    19 basis functions,    36 primitive gaussians,    19 cartesian basis functions
     5 alpha electrons        5 beta electrons
       nuclear repulsion energy         9.1939131606 Hartrees.
 IExCor=  402 DFT=T Ex+Corr=B3LYP ExCW=0 ScaHFX=  0.200000
 ScaDFX=  0.800000  0.720000  1.000000  0.810000 ScalE2=  1.000000  1.000000
 IRadAn=      5 IRanWt=     -1 IRanGd=            0 ICorTp=0 IEmpDi=  4
 NAtoms=    3 NActive=    3 NUniq=    3 SFac= 1.00D+00 NAtFMM=   60 NAOKFM=F Big=F
 Integral buffers will be    131072 words long.
 Raffenetti 2 integral format.
 Two-electron integral symmetry is turned off.
 Background charge distribution read from rwf.
 PtFMM for NChg=        21 BoxLen=    40.00 Levels= 0 LMax=20 SMax=    11.9 ICnFMM=     1:
 Self energy of the charges =       -40.1760650981 a.u.
 MM   energy of the charges =         0.0000000000 a.u.
 Nuclei-charges interaction =        -0.0453164039 a.u.
 Nuclear repulsion after external point charges =      -31.0274683414 Hartrees.
 Leave Link  301 at Mon Feb  1 10:14:42 2021, MaxMem=    33554432 cpu:               0.1 elap:               0.0
 (Enter /home/madison/g16a03/g16/l302.exe)
 NPDir=0 NMtPBC=     1 NCelOv=     1 NCel=       1 NClECP=     1 NCelD=      1
         NCelK=      1 NCelE2=     1 NClLst=     1 CellRange=     0.0.
 One-electron integrals computed using PRISM.
 NBasis=    19 RedAO= T EigKep=  2.23D-02  NBF=    19
 NBsUse=    19 1.00D-06 EigRej= -1.00D+00 NBFU=    19
 Precomputing XC quadrature grid using
 IXCGrd= 4 IRadAn=           5 IRanWt=          -1 IRanGd=           0 AccXCQ= 0.00D+00.
 Generated NRdTot=       0 NPtTot=           0 NUsed=           0 NTot=          32
 NSgBfM=    19    19    19    19    19 MxSgAt=     3 MxSgA2=     3.
 Leave Link  302 at Mon Feb  1 10:14:42 2021, MaxMem=    33554432 cpu:               0.3 elap:               0.1
 (Enter /home/madison/g16a03/g16/l303.exe)
 DipDrv:  MaxL=1.
 Leave Link  303 at Mon Feb  1 10:14:42 2021, MaxMem=    33554432 cpu:               0.1 elap:               0.0
 (Enter /home/madison/g16a03/g16/l401.exe)
 ExpMin= 1.61D-01 ExpMax= 5.48D+03 ExpMxC= 8.25D+02 IAcc=3 IRadAn=         5 AccDes= 0.00D+00
 Harris functional with IExCor=  402 and IRadAn=       5 diagonalized for initial guess.
 HarFok:  IExCor=  402 AccDes= 0.00D+00 IRadAn=         5 IDoV= 1 UseB2=F ITyADJ=14
 ICtDFT=  3500011 ScaDFX=  1.000000  1.000000  1.000000  1.000000
 FoFCou: FMM=F IPFlag=           0 FMFlag=      100000 FMFlg1=           0
         NFxFlg=           0 DoJE=T BraDBF=F KetDBF=T FulRan=T
         wScrn=  0.000000 ICntrl=       500 IOpCl=  0 I1Cent=   200000004 NGrid=           0
         NMat0=    1 NMatS0=      1 NMatT0=    0 NMatD0=    1 NMtDS0=    0 NMtDT0=    0
 Symmetry not used in FoFCou.
 Harris En= -116.624943549369    
 JPrj=0 DoOrth=F DoCkMO=F.
 Leave Link  401 at Mon Feb  1 10:14:42 2021, MaxMem=    33554432 cpu:               0.4 elap:               0.1
 (Enter /home/madison/g16a03/g16/l502.exe)
 Keep R1 ints in memory in canonical form, NReq=3464975.
 FoFCou: FMM=F IPFlag=           0 FMFlag=           0 FMFlg1=           0
         NFxFlg=           0 DoJE=F BraDBF=F KetDBF=F FulRan=T
         wScrn=  0.000000 ICntrl=       600 IOpCl=  0 I1Cent=           0 NGrid=           0
         NMat0=    1 NMatS0=    190 NMatT0=    0 NMatD0=    1 NMtDS0=    0 NMtDT0=    0
 Symmetry not used in FoFCou.
 Two-electron integral symmetry not used.
 Closed shell SCF:
 Using DIIS extrapolation, IDIIS=  1040.
 NGot=    33554432 LenX=    33534923 LenY=    33534041
 Requested convergence on RMS density matrix=1.00D-08 within 128 cycles.
 Requested convergence on MAX density matrix=1.00D-06.
 Requested convergence on             energy=1.00D-06.
 No special actions if energy rises.
 Integral accuracy reduced to 1.0D-05 until final iterations.

 Cycle   1  Pass 0  IDiag  1:
 E= -116.506053184189    
 DIIS: error= 7.80D-02 at cycle   1 NSaved=   1.
 NSaved= 1 IEnMin= 1 EnMin= -116.506053184189     IErMin= 1 ErrMin= 7.80D-02
 ErrMax= 7.80D-02  0.00D+00 EMaxC= 1.00D-01 BMatC= 1.07D-01 BMatP= 1.07D-01
 IDIUse=3 WtCom= 2.20D-01 WtEn= 7.80D-01
 Coeff-Com:  0.100D+01
 Coeff-En:   0.100D+01
 Coeff:      0.100D+01
 Gap=     0.213 Goal=   None    Shift=    0.000
 GapD=    0.213 DampG=1.000 DampE=0.500 DampFc=0.5000 IDamp=-1.
 Damping current iteration by 5.00D-01
 RMSDP=2.98D-02 MaxDP=2.29D-01              OVMax= 2.01D-01

 Cycle   2  Pass 0  IDiag  1:
 E= -116.533679650982     Delta-E=       -0.027626466793 Rises=F Damp=T
 DIIS: error= 1.89D-02 at cycle   2 NSaved=   2.
 NSaved= 2 IEnMin= 2 EnMin= -116.533679650982     IErMin= 2 ErrMin= 1.89D-02
 ErrMax= 1.89D-02  0.00D+00 EMaxC= 1.00D-01 BMatC= 6.24D-03 BMatP= 1.07D-01
 IDIUse=3 WtCom= 8.11D-01 WtEn= 1.89D-01
 Coeff-Com:  0.180D+00 0.820D+00
 Coeff-En:   0.294D+00 0.706D+00
 Coeff:      0.201D+00 0.799D+00
 Gap=     0.345 Goal=   None    Shift=    0.000
 RMSDP=3.57D-03 MaxDP=3.82D-02 DE=-2.76D-02 OVMax= 1.11D-01

 Cycle   3  Pass 0  IDiag  1:
 E= -116.585338707349     Delta-E=       -0.051659056367 Rises=F Damp=F
 DIIS: error= 3.21D-03 at cycle   3 NSaved=   3.
 NSaved= 3 IEnMin= 3 EnMin= -116.585338707349     IErMin= 3 ErrMin= 3.21D-03
 ErrMax= 3.21D-03  0.00D+00 EMaxC= 1.00D-01 BMatC= 1.98D-04 BMatP= 6.24D-03
 IDIUse=3 WtCom= 9.68D-01 WtEn= 3.21D-02
 Coeff-Com:  0.375D-01-0.109D-01 0.973D+00
 Coeff-En:   0.000D+00 0.000D+00 0.100D+01
 Coeff:      0.363D-01-0.106D-01 0.974D+00
 Gap=     0.358 Goal=   None    Shift=    0.000
 RMSDP=4.75D-04 MaxDP=4.04D-03 DE=-5.17D-02 OVMax= 3.26D-03

 Cycle   4  Pass 0  IDiag  1:
 E= -116.585472527197     Delta-E=       -0.000133819848 Rises=F Damp=F
 DIIS: error= 3.55D-04 at cycle   4 NSaved=   4.
 NSaved= 4 IEnMin= 4 EnMin= -116.585472527197     IErMin= 4 ErrMin= 3.55D-04
 ErrMax= 3.55D-04  0.00D+00 EMaxC= 1.00D-01 BMatC= 2.08D-06 BMatP= 1.98D-04
 IDIUse=3 WtCom= 9.96D-01 WtEn= 3.55D-03
 Coeff-Com:  0.609D-02-0.174D-01 0.216D+00 0.795D+00
 Coeff-En:   0.000D+00 0.000D+00 0.000D+00 0.100D+01
 Coeff:      0.607D-02-0.174D-01 0.216D+00 0.796D+00
 Gap=     0.358 Goal=   None    Shift=    0.000
 RMSDP=3.87D-05 MaxDP=1.75D-04 DE=-1.34D-04 OVMax= 2.84D-04

 Cycle   5  Pass 0  IDiag  1:
 E= -116.585474018090     Delta-E=       -0.000001490893 Rises=F Damp=F
 DIIS: error= 5.29D-05 at cycle   5 NSaved=   5.
 NSaved= 5 IEnMin= 5 EnMin= -116.585474018090     IErMin= 5 ErrMin= 5.29D-05
 ErrMax= 5.29D-05  0.00D+00 EMaxC= 1.00D-01 BMatC= 3.95D-08 BMatP= 2.08D-06
 IDIUse=1 WtCom= 1.00D+00 WtEn= 0.00D+00
 Coeff-Com:  0.510D-03-0.322D-03-0.507D-03-0.563D-02 0.101D+01
 Coeff:      0.510D-03-0.322D-03-0.507D-03-0.563D-02 0.101D+01
 Gap=     0.358 Goal=   None    Shift=    0.000
 RMSDP=7.84D-06 MaxDP=7.06D-05 DE=-1.49D-06 OVMax= 4.29D-05

 Initial convergence to 1.0D-05 achieved.  Increase integral accuracy.
 Cycle   6  Pass 1  IDiag  1:
 E= -116.585475147881     Delta-E=       -0.000001129791 Rises=F Damp=F
 DIIS: error= 5.71D-07 at cycle   1 NSaved=   1.
 NSaved= 1 IEnMin= 1 EnMin= -116.585475147881     IErMin= 1 ErrMin= 5.71D-07
 ErrMax= 5.71D-07  0.00D+00 EMaxC= 1.00D-01 BMatC= 8.00D-12 BMatP= 8.00D-12
 IDIUse=1 WtCom= 1.00D+00 WtEn= 0.00D+00
 Coeff-Com:  0.100D+01
 Coeff:      0.100D+01
 Gap=     0.358 Goal=   None    Shift=    0.000
 RMSDP=7.84D-06 MaxDP=7.06D-05 DE=-1.13D-06 OVMax= 1.47D-06

 Cycle   7  Pass 1  IDiag  1:
 E= -116.585475147888     Delta-E=       -0.000000000006 Rises=F Damp=F
 DIIS: error= 3.54D-07 at cycle   2 NSaved=   2.
 NSaved= 2 IEnMin= 2 EnMin= -116.585475147888     IErMin= 2 ErrMin= 3.54D-07
 ErrMax= 3.54D-07  0.00D+00 EMaxC= 1.00D-01 BMatC= 2.78D-12 BMatP= 8.00D-12
 IDIUse=1 WtCom= 1.00D+00 WtEn= 0.00D+00
 Coeff-Com:  0.349D+00 0.651D+00
 Coeff:      0.349D+00 0.651D+00
 Gap=     0.358 Goal=   None    Shift=    0.000
 RMSDP=8.55D-08 MaxDP=5.46D-07 DE=-6.25D-12 OVMax= 6.31D-07

 Cycle   8  Pass 1  IDiag  1:
 E= -116.585475147889     Delta-E=       -0.000000000002 Rises=F Damp=F
 DIIS: error= 2.12D-07 at cycle   3 NSaved=   3.
 NSaved= 3 IEnMin= 3 EnMin= -116.585475147889     IErMin= 3 ErrMin= 2.12D-07
 ErrMax= 2.12D-07  0.00D+00 EMaxC= 1.00D-01 BMatC= 6.79D-13 BMatP= 2.78D-12
 IDIUse=1 WtCom= 1.00D+00 WtEn= 0.00D+00
 Coeff-Com:  0.719D-01 0.349D+00 0.579D+00
 Coeff:      0.719D-01 0.349D+00 0.579D+00
 Gap=     0.358 Goal=   None    Shift=    0.000
 RMSDP=2.86D-08 MaxDP=2.06D-07 DE=-1.63D-12 OVMax= 1.95D-07

 Cycle   9  Pass 1  IDiag  1:
 E= -116.585475147890     Delta-E=       -0.000000000000 Rises=F Damp=F
 DIIS: error= 2.35D-08 at cycle   4 NSaved=   4.
 NSaved= 4 IEnMin= 4 EnMin= -116.585475147890     IErMin= 4 ErrMin= 2.35D-08
 ErrMax= 2.35D-08  0.00D+00 EMaxC= 1.00D-01 BMatC= 1.11D-14 BMatP= 6.79D-13
 IDIUse=1 WtCom= 1.00D+00 WtEn= 0.00D+00
 Coeff-Com: -0.156D-01 0.413D-01 0.154D+00 0.820D+00
 Coeff:     -0.156D-01 0.413D-01 0.154D+00 0.820D+00
 Gap=     0.358 Goal=   None    Shift=    0.000
 RMSDP=4.71D-09 MaxDP=2.66D-08 DE=-4.69D-13 OVMax= 4.21D-08

 SCF Done:  E(RB3LYP) =  -116.585475148     A.U. after    9 cycles
            NFock=  9  Conv=0.47D-08     -V/T= 2.5369
 KE= 7.585715400205D+01 PE=-1.989430461821D+02 EE= 3.752788537351D+01
 Leave Link  502 at Mon Feb  1 10:14:43 2021, MaxMem=    33554432 cpu:               0.9 elap:               0.2
 (Enter /home/madison/g16a03/g16/l601.exe)
 Copying SCF densities to generalized density rwf, IOpCl= 0 IROHF=0.

 **********************************************************************

            Population analysis using the SCF density.

 **********************************************************************

 Alpha  occ. eigenvalues --  -19.13096  -0.99727  -0.51809  -0.36663  -0.28712
 Alpha virt. eigenvalues --    0.07137   0.15802   0.78570   0.87448   0.89540
 Alpha virt. eigenvalues --    0.90033   1.07408   1.19727   1.73367   1.74773
 Alpha virt. eigenvalues --    1.78363   2.29926   2.60284   3.56396
          Condensed to atoms (all electrons):
               1          2          3
     1  O    8.287210   0.246279   0.247306
     2  H    0.246279   0.388705  -0.023698
     3  H    0.247306  -0.023698   0.384308
 Mulliken charges:
               1
     1  O   -0.780796
     2  H    0.388713
     3  H    0.392083
 Sum of Mulliken charges =  -0.00000
 Mulliken charges with hydrogens summed into heavy atoms:
               1
     1  O   -0.000000
 Electronic spatial extent (au):  <R**2>=            768.3374
 Charge=             -0.0000 electrons
 Dipole moment (field-independent basis, Debye):
    X=             -2.0886    Y=              0.0002    Z=              0.0122  Tot=              2.0886
 Quadrupole moment (field-independent basis, Debye-Ang):
   XX=            -16.8386   YY=             -7.1813   ZZ=             -4.3488
   XY=              0.2360   XZ=              7.8458   YZ=             -0.0021
 Traceless Quadrupole moment (field-independent basis, Debye-Ang):
   XX=             -7.3823   YY=              2.2750   ZZ=              5.1074
   XY=              0.2360   XZ=              7.8458   YZ=             -0.0021
 Octapole moment (field-independent basis, Debye-Ang**2):
  XXX=            -90.0980  YYY=              2.4294  ZZZ=             48.3492  XYY=            -18.9850
  XXY=              1.9000  XXZ=             63.1027  XZZ=            -41.7138  YZZ=              0.4929
  YYZ=             26.8889  XYZ=             -0.8864
 Hexadecapole moment (field-independent basis, Debye-Ang**3):
 XXXX=           -407.0501 YYYY=             -5.7356 ZZZZ=           -366.7964 XXXY=             10.1628
 XXXZ=            337.4677 YYYX=              6.4165 YYYZ=             -9.0963 ZZZX=            248.2406
 ZZZY=             -5.4615 XXYY=            -52.1921 XXZZ=           -273.0614 YYZZ=           -102.8200
 XXYZ=             -7.1200 YYXZ=             71.0838 ZZXY=              4.7101
 N-N=-3.102746834135D+01 E-N=-1.989430458443D+02  KE= 7.585715400205D+01
 No NMR shielding tensors so no spin-rotation constants.
 Leave Link  601 at Mon Feb  1 10:14:43 2021, MaxMem=    33554432 cpu:               0.8 elap:               0.3
 (Enter /home/madison/g16a03/g16/l602.exe)
 FitSet:  NAtFit=     3 NAtPot=     3 NAtFrz=     0 MDM=     7 TotChg=   0.00000
 Merz-Kollman atomic radii used.
 Read replacement radii for each type of atom:
 Atom Element Radius
    1     8    1.40
    2     1    1.20
    3     1    1.20

 **********************************************************************

            Electrostatic Properties Using The SCF Density

 **********************************************************************

       Atomic Center    1 is at   2.710805 -0.112757 -3.743790
       Atomic Center    2 is at   2.124805 -0.112757 -4.500790
       Atomic Center    3 is at   2.124805 -0.112757 -2.986790
     284 points will be used for fitting atomic charges
 Fitting point charges to electrostatic potential
 Charges from ESP fit, RMS=   0.00254 RRMS=   0.11319:
 ESP charges:
               1
     1  O   -0.760648
     2  H    0.378664
     3  H    0.381983
 Sum of ESP charges =  -0.00000
 ESP charges with hydrogens summed into heavy atoms:
               1
     1  O   -0.000000
 Charge=  -0.00000 Dipole=    -2.1410     0.0000     0.0121 Tot=     2.1410
 -----------------------------------------------------------------

              Electrostatic Properties (Atomic Units)

 -----------------------------------------------------------------
    Center     Electric         -------- Electric Field --------
               Potential          X             Y             Z
 -----------------------------------------------------------------
    1 Atom    -22.324464
    2 Atom     -1.002868
    3 Atom     -1.001253
 -----------------------------------------------------------------
 Leave Link  602 at Mon Feb  1 10:14:43 2021, MaxMem=    33554432 cpu:               0.5 elap:               0.2
 (Enter /home/madison/g16a03/g16/l9999.exe)

 Test job not archived.
 1\1\CRUNTCH3-GREENTEA\SP\RB3LYP\6-31G(d)\H2O1\MADISON\01-Feb-2021\0\\#
 P b3lyp/6-31G* SP Symmetry=None Charge=angstroms Population=(MK,ReadRa
 dii)\\QMMM\\0,1\O,0,2.710805,-0.112757,-3.74379\H,0,2.124805,-0.112757
 ,-4.50079\H,0,2.124805,-0.112757,-2.98679\\Version=ES64L-G16RevA.03\HF
 =-116.5854751\RMSD=4.711e-09\Dipole=-0.8217213,0.000074,0.0047996\Quad
 rupole=-5.4885962,1.691378,3.7972182,0.1754509,5.8331333,-0.001531\PG=
 Unknown\\@


 K N O W I N G  IS A BARRIER WHICH PREVENTS LEARNING

                     -- TEACHING OF THE BENE GESSERIT
 Job cpu time:       0 days  0 hours  0 minutes  3.9 seconds.
 Elapsed time:       0 days  0 hours  0 minutes  1.1 seconds.
 File lengths (MBytes):  RWF=      6 Int=      0 D2E=      0 Chk=      1 Scr=      1
 Normal termination of Gaussian 16 at Mon Feb  1 10:14:44 2021.
